                         Program Version 6.0.1  -  RELEASE   -
|  1> ! Opt B3LYP D4 def2-TZVP TightSCF TightOpt CPCM(water)  RIJCOSX def2/J
|  2>
|  3> %maxcore 5000
|  4>
|  5> %pal
|  6> nprocs 18
|  7> end
|  8>
|  9> * xyz 0 1
| 10> Li      -3.4103138523   2.3466869161  -2.0934737716
| 11> F       -1.9248775677   5.9209049267  -0.6134004247
| 12> O       -0.9063509410   4.1496132486  -0.1443850955
| 13> P       -2.6193829343   4.4271279130  -0.1260593046
| 14> F       -3.0628296544   5.8893005025   0.6591003841
| 15> O       -2.4372488012   4.1067414379   1.5697802896
| 16> *
| 17>
| 18>
| 19>                          ****END OF INPUT****
 Total Charge           Charge          ....    0
 Multiplicity           Mult            ....    1
 Number of Electrons    NEL             ....   52
Dispersion correction           -0.008831749
FINAL SINGLE POINT ENERGY      -698.847839892070
Dispersion correction             ... done (  0.0 sec)
Dispersion correction           -0.008830515
FINAL SINGLE POINT ENERGY      -698.897734866311
Dispersion correction             ... done (  0.0 sec)
Dispersion correction           -0.008832305
FINAL SINGLE POINT ENERGY      -698.944252267514
Dispersion correction             ... done (  0.0 sec)
FINAL SINGLE POINT ENERGY      -699.005020182592
FINAL SINGLE POINT ENERGY      -698.997710038918
FINAL SINGLE POINT ENERGY      -699.035948032388
FINAL SINGLE POINT ENERGY      -699.042789854734
FINAL SINGLE POINT ENERGY      -699.049105477653
FINAL SINGLE POINT ENERGY      -699.051443197666
FINAL SINGLE POINT ENERGY      -699.052147828632
FINAL SINGLE POINT ENERGY      -699.059008023999
FINAL SINGLE POINT ENERGY      -699.059013090647
FINAL SINGLE POINT ENERGY      -699.059015166701
FINAL SINGLE POINT ENERGY      -699.059015749959
FINAL SINGLE POINT ENERGY      -699.059015942952
FINAL SINGLE POINT ENERGY      -699.059016055044
FINAL SINGLE POINT ENERGY      -699.059015924467
Dispersion correction             ... done (  0.0 sec)
Dispersion correction           -0.007804205
FINAL SINGLE POINT ENERGY      -699.059016306777
Dispersion correction             ... done (  0.0 sec)
Dispersion correction           -0.007803977
FINAL SINGLE POINT ENERGY      -699.059016371304
Dispersion correction             ... done (  0.0 sec)
                    ***********************HURRAY********************

CARTESIAN COORDINATES (ANGSTROEM)
---------------------------------
  Li    -3.481238    2.947926   -1.706516
  F     -1.758950    5.866281   -0.744314
  O     -0.968271    3.723048    0.177695
  P     -2.502966    4.560804   -0.172379
  F     -3.748789    5.510685    0.414413
  O     -1.900790    4.231631    1.282664

 Multiplicity           Mult            ....    1
 Number of Electrons    NEL             ....   52
 Basis Dimension        Dim             ....  175

ORBITAL ENERGIES
----------------

  NO   OCC          E(Eh)            E(eV)
   0   2.0000     -77.171489     -2099.9430
   1   2.0000     -24.679360      -671.5595
   2   2.0000     -24.648168      -670.7107
   3   2.0000     -19.178692      -521.8787
   4   2.0000     -19.147081      -521.0186
   5   2.0000      -6.636921      -180.5998
   6   2.0000      -4.799638      -130.6048
   7   2.0000      -4.799416      -130.5987
   8   2.0000      -4.794827      -130.4739
   9   2.0000      -2.051972       -55.8370
  10   2.0000      -1.213513       -33.0214
  11   2.0000      -1.158735       -31.5308
  12   2.0000      -1.101015       -29.9601
  13   2.0000      -0.840370       -22.8676
  14   2.0000      -0.621762       -16.9190
  15   2.0000      -0.506213       -13.7748
  16   2.0000      -0.498701       -13.5704
  17   2.0000      -0.475873       -12.9492
  18   2.0000      -0.451455       -12.2847
  19   2.0000      -0.430375       -11.7111
  20   2.0000      -0.405754       -11.0411
  21   2.0000      -0.394838       -10.7441
  22   2.0000      -0.384668       -10.4673
  23   2.0000      -0.330621        -8.9967
  24   2.0000      -0.270284        -7.3548
  25   2.0000      -0.259187        -7.0528
  26   0.0000      -0.026741        -0.7277
  27   0.0000      -0.012895        -0.3509
  28   0.0000      -0.003011        -0.0819
  29   0.0000       0.025499         0.6939
  30   0.0000       0.080923         2.2020

MULLIKEN ATOMIC CHARGES
-----------------------
   0 Li:    0.826343
   1 F :   -0.305383
   2 O :   -0.393981
   3 P :    0.537267
   4 F :   -0.382749
   5 O :   -0.281497
Sum of atomic charges:   -0.0000000

LOEWDIN ATOMIC CHARGES
----------------------
   0 Li:    0.626858
   1 F :   -0.097865
   2 O :   -0.259680
   3 P :    0.054887
   4 F :   -0.200510
   5 O :   -0.123690

  Mayer bond orders larger than 0.100000
B(  0-Li,  3-P ) :   0.2709 B(  1-F ,  3-P ) :   0.9779 B(  2-O ,  3-P ) :   0.7066
B(  2-O ,  5-O ) :   0.8441 B(  3-P ,  4-F ) :   0.8582 B(  3-P ,  5-O ) :   1.0467

Dispersion correction           -0.007804088
FINAL SINGLE POINT ENERGY      -699.059016387120

DIPOLE MOMENT
-------------

Method             : SCF
Type of density    : Electron Density
Multiplicity       :   1
Irrep              :   0
Energy             :  -699.0512122991494834 Eh
Relativity type    :
Basis              : AO
                                X                 Y                 Z
Electronic contribution:     -4.310048056      -2.501909632      -5.318891172
Nuclear contribution   :      1.956459215      -0.249445242       1.985407611
                        -----------------------------------------
Total Dipole Moment    :     -2.353588841      -2.751354875      -3.333483561
                        -----------------------------------------
Magnitude (a.u.)       :      4.921528901
Magnitude (Debye)      :     12.509532319

Rotational constants in cm-1:             0.135639             0.104507             0.099044
Rotational constants in MHz :          4066.345199          3133.054466          2969.277189

                             ****ORCA TERMINATED NORMALLY****
TOTAL RUN TIME: 0 days 0 hours 4 minutes 22 seconds 606 msec
