                         Program Version 6.0.1  -  RELEASE   -
|  1> ! B3LYP D3BJ 6-311++G(d,p) Opt TightSCF RIJCOSX
|  2>
|  3> %maxcore 5000
|  4>
|  5> %pal
|  6> nprocs 32
|  7> end
|  8>
|  9> * xyz 0 1
| 10> O        0.0034000000      0.9946000000     -1.2588000000
| 11> H        2.7350000000      0.7704000000     -0.0009000000
| 12> H       -2.7412000000      0.7689000000     -0.0006000000
| 13> S       -0.0078000000      0.2632000000     -0.0002000000
| 14> C        2.5639000000     -0.3006000000      0.0003000000
| 15> C       -2.5648000000     -0.3013000000      0.0004000000
| 16> C        1.3388000000     -0.8291000000      0.0009000000
| 17> H        3.4348000000     -0.9475000000      0.0010000000
| 18> C       -1.3373000000     -0.8247000000      0.0010000000
| 19> H       -3.4329000000     -0.9520000000      0.0011000000
| 20> H        1.1912000000     -1.9027000000      0.0020000000
| 21> H       -1.1910000000     -1.8986000000      0.0020000000
| 22> O        0.0037000000      0.9980000000      1.2564000000
| 23> *
| 24>
| 25>                          ****END OF INPUT****
 Total Charge           Charge          ....    0
 Multiplicity           Mult            ....    1
 Number of Electrons    NEL             ....   62
Dispersion correction           -0.022949137
FINAL SINGLE POINT ENERGY      -704.440372679475
Dispersion correction             ... done (  0.1 sec)
Dispersion correction           -0.022653831
FINAL SINGLE POINT ENERGY      -704.444747207386
Dispersion correction             ... done (  0.1 sec)
Dispersion correction           -0.022442873
FINAL SINGLE POINT ENERGY      -704.446371331125
Dispersion correction             ... done (  0.1 sec)
FINAL SINGLE POINT ENERGY      -704.446623215320
FINAL SINGLE POINT ENERGY      -704.446693598707
FINAL SINGLE POINT ENERGY      -704.446764125290
FINAL SINGLE POINT ENERGY      -704.446947848699
FINAL SINGLE POINT ENERGY      -704.447515174748
FINAL SINGLE POINT ENERGY      -704.448177761185
FINAL SINGLE POINT ENERGY      -704.448702919583
FINAL SINGLE POINT ENERGY      -704.455107218952
FINAL SINGLE POINT ENERGY      -704.457540157990
FINAL SINGLE POINT ENERGY      -704.458361967282
FINAL SINGLE POINT ENERGY      -704.458701859337
FINAL SINGLE POINT ENERGY      -704.459040508595
FINAL SINGLE POINT ENERGY      -704.459124474781
FINAL SINGLE POINT ENERGY      -704.459176365339
Dispersion correction             ... done (  0.1 sec)
Dispersion correction           -0.022657955
FINAL SINGLE POINT ENERGY      -704.459185685100
Dispersion correction             ... done (  0.1 sec)
Dispersion correction           -0.022659960
FINAL SINGLE POINT ENERGY      -704.459186934673
Dispersion correction             ... done (  0.1 sec)
                    ***********************HURRAY********************

CARTESIAN COORDINATES (ANGSTROEM)
---------------------------------
  O      0.009747    0.390054   -2.238402
  H      2.025884    0.536324    1.212939
  H     -2.031334    0.547830    1.197607
  S      0.004231    0.274213   -0.776350
  C      2.217142   -0.373092    0.653959
  C     -2.222962   -0.360745    0.637380
  C      1.403258   -0.749383   -0.321464
  H      3.093968   -0.959172    0.905059
  C     -1.403727   -0.741675   -0.331699
  H     -3.104783   -0.942008    0.882161
  H      1.526986   -1.627138   -0.944825
  H     -1.527087   -1.618836   -0.955973
  O      0.004477    1.462226    0.084206

 Multiplicity           Mult            ....    1
 Number of Electrons    NEL             ....   62
 Basis Dimension        Dim             ....  204

ORBITAL ENERGIES
----------------

  NO   OCC          E(Eh)            E(eV)
   0   2.0000     -89.054131     -2423.2861
   1   2.0000     -19.119706      -520.2736
   2   2.0000     -19.116835      -520.1955
   3   2.0000     -10.222786      -278.1761
   4   2.0000     -10.222770      -278.1757
   5   2.0000     -10.211464      -277.8681
   6   2.0000     -10.211434      -277.8672
   7   2.0000      -8.118150      -220.9061
   8   2.0000      -6.080590      -165.4613
   9   2.0000      -6.079868      -165.4416
  10   2.0000      -6.079819      -165.4403
  11   2.0000      -1.114189       -30.3186
  12   2.0000      -1.010341       -27.4928
  13   2.0000      -0.830482       -22.5986
  14   2.0000      -0.811838       -22.0912
  15   2.0000      -0.704735       -19.1768
  16   2.0000      -0.625284       -17.0149
  17   2.0000      -0.573531       -15.6066
  18   2.0000      -0.537522       -14.6267
  19   2.0000      -0.504513       -13.7285
  20   2.0000      -0.494294       -13.4504
  21   2.0000      -0.475377       -12.9357
  22   2.0000      -0.448501       -12.2043
  23   2.0000      -0.421150       -11.4601
  24   2.0000      -0.416942       -11.3456
  25   2.0000      -0.344611        -9.3773
  26   2.0000      -0.335971        -9.1422
  27   2.0000      -0.329587        -8.9685
  28   2.0000      -0.311500        -8.4763
  29   2.0000      -0.307504        -8.3676
  30   2.0000      -0.296682        -8.0731
  31   0.0000      -0.071714        -1.9514
  32   0.0000      -0.025425        -0.6919
  33   0.0000      -0.013041        -0.3549
  34   0.0000       0.001740         0.0474
  35   0.0000       0.010149         0.2762

MULLIKEN ATOMIC CHARGES
-----------------------
   0 O :   -0.178502
   1 H :    0.199816
   2 H :    0.199802
   3 S :   -0.024070
   4 C :   -0.381297
   5 C :   -0.381570
   6 C :    0.009484
   7 H :    0.142645
   8 C :    0.009671
   9 H :    0.142657
  10 H :    0.267575
  11 H :    0.267596
  12 O :   -0.273808
Sum of atomic charges:   -0.0000000

LOEWDIN ATOMIC CHARGES
----------------------
   0 O :   -0.607978
   1 H :    0.064669
   2 H :    0.064664
   3 S :    1.348261
   4 C :    0.003225
   5 C :    0.003182
   6 C :   -0.235220
   7 H :    0.049075
   8 C :   -0.235166
   9 H :    0.049077
  10 H :    0.063207
  11 H :    0.063208
  12 O :   -0.630204

  Mayer bond orders larger than 0.100000
B(  0-O ,  3-S ) :   2.0291 B(  0-O ,  6-C ) :  -0.1307 B(  0-O ,  8-C ) :  -0.1306
B(  0-O , 12-O ) :  -0.2350 B(  1-H ,  4-C ) :   0.9269 B(  2-H ,  5-C ) :   0.9269
B(  3-S ,  4-C ) :   0.1126 B(  3-S ,  5-C ) :   0.1126 B(  3-S ,  6-C ) :   0.7899
B(  3-S ,  8-C ) :   0.7899 B(  3-S , 12-O ) :   2.0491 B(  4-C ,  6-C ) :   1.8111
B(  4-C ,  7-H ) :   0.9553 B(  5-C ,  8-C ) :   1.8112 B(  5-C ,  9-H ) :   0.9553
B(  6-C ,  8-C ) :  -0.2286 B(  6-C , 10-H ) :   0.8350 B(  6-C , 12-O ) :  -0.1784
B(  8-C , 11-H ) :   0.8349 B(  8-C , 12-O ) :  -0.1785

Dispersion correction           -0.022660375
FINAL SINGLE POINT ENERGY      -704.459187335522

DIPOLE MOMENT
-------------

Method             : SCF
Type of density    : Electron Density
Multiplicity       :   1
Irrep              :   0
Energy             :  -704.4365269602733406 Eh
Relativity type    :
Basis              : AO
                                X                 Y                 Z
Electronic contribution:      0.019770890       2.598896826      -3.353752023
Nuclear contribution   :     -0.028186873      -4.154826701       4.498195896
                        -----------------------------------------
Total Dipole Moment    :     -0.008415983      -1.555929876       1.144443873
                        -----------------------------------------
Magnitude (a.u.)       :      1.931512461
Magnitude (Debye)      :      4.909514509

Rotational constants in cm-1:             0.104852             0.065647             0.056165
Rotational constants in MHz :          3143.369803          1968.053031          1683.769917

                             ****ORCA TERMINATED NORMALLY****
TOTAL RUN TIME: 0 days 0 hours 4 minutes 19 seconds 757 msec
