                         Program Version 6.0.1  -  RELEASE   -
|  1> ! Opt B3LYP def2-TZVP TightSCF TightOpt D3BJ RIJCOSX
|  2>
|  3> %maxcore 5000
|  4>
|  5> %pal
|  6> nprocs 32
|  7> end
|  8>
|  9> * xyz 0 1
| 10> F         -1.73320        0.68190       -0.74970
| 11> O          0.06590        0.89910        0.56450
| 12> O          0.48020       -1.13660       -0.30030
| 13> O          2.16930        0.41450       -0.21450
| 14> C         -1.18080        0.24700        0.41100
| 15> C         -0.81200       -1.19520        0.29280
| 16> C          1.01050        0.08940       -0.00390
| 17> H         -1.86370        0.46440        1.23610
| 18> H         -0.71650       -1.68710        1.26590
| 19> H         -1.49640       -1.75840       -0.34660
| 20> *
| 21>
| 22>                          ****END OF INPUT****
 Total Charge           Charge          ....    0
 Multiplicity           Mult            ....    1
 Number of Electrons    NEL             ....   54
Dispersion correction           -0.012155433
FINAL SINGLE POINT ENERGY      -441.639068169669
Dispersion correction             ... done (  0.0 sec)
Dispersion correction           -0.012142241
FINAL SINGLE POINT ENERGY      -441.643156287362
Dispersion correction             ... done (  0.0 sec)
Dispersion correction           -0.012117607
FINAL SINGLE POINT ENERGY      -441.643994405474
Dispersion correction             ... done (  0.0 sec)
FINAL SINGLE POINT ENERGY      -441.644067612599
FINAL SINGLE POINT ENERGY      -441.644437099638
FINAL SINGLE POINT ENERGY      -441.644504983551
FINAL SINGLE POINT ENERGY      -441.644545961798
FINAL SINGLE POINT ENERGY      -441.644554369636
FINAL SINGLE POINT ENERGY      -441.644556318830
Dispersion correction             ... done (  0.0 sec)
Dispersion correction           -0.012075229
FINAL SINGLE POINT ENERGY      -441.644556858765
Dispersion correction             ... done (  0.0 sec)
Dispersion correction           -0.012075344
FINAL SINGLE POINT ENERGY      -441.644556975833
Dispersion correction             ... done (  0.0 sec)
                    ***********************HURRAY********************

CARTESIAN COORDINATES (ANGSTROEM)
---------------------------------
  F     -1.893016    0.665971   -0.691355
  O      0.049398    0.917225    0.440096
  O      0.557639   -1.170450   -0.155398
  O      2.160874    0.419995   -0.215331
  C     -1.179847    0.256056    0.414924
  C     -0.801209   -1.215930    0.288332
  C      1.047095    0.081203   -0.009564
  H     -1.758764    0.527911    1.295009
  H     -0.850401   -1.737734    1.244825
  H     -1.408470   -1.725246   -0.456238

 Multiplicity           Mult            ....    1
 Number of Electrons    NEL             ....   54
 Basis Dimension        Dim             ....  235

ORBITAL ENERGIES
----------------

  NO   OCC          E(Eh)            E(eV)
   0   2.0000     -24.703639      -672.2202
   1   2.0000     -19.208880      -522.7002
   2   2.0000     -19.206523      -522.6361
   3   2.0000     -19.132733      -520.6281
   4   2.0000     -10.364301      -282.0270
   5   2.0000     -10.344037      -281.4756
   6   2.0000     -10.272900      -279.5398
   7   2.0000      -1.245562       -33.8935
   8   2.0000      -1.178966       -32.0813
   9   2.0000      -1.074623       -29.2420
  10   2.0000      -1.066528       -29.0217
  11   2.0000      -0.802729       -21.8434
  12   2.0000      -0.705809       -19.2060
  13   2.0000      -0.645646       -17.5689
  14   2.0000      -0.584530       -15.9059
  15   2.0000      -0.572871       -15.5886
  16   2.0000      -0.538608       -14.6563
  17   2.0000      -0.508520       -13.8375
  18   2.0000      -0.485456       -13.2099
  19   2.0000      -0.467887       -12.7319
  20   2.0000      -0.449553       -12.2330
  21   2.0000      -0.423530       -11.5248
  22   2.0000      -0.405897       -11.0450
  23   2.0000      -0.380900       -10.3648
  24   2.0000      -0.363551        -9.8927
  25   2.0000      -0.333927        -9.0866
  26   2.0000      -0.321720        -8.7544
  27   0.0000       0.010454         0.2845
  28   0.0000       0.021485         0.5846
  29   0.0000       0.035303         0.9606
  30   0.0000       0.057310         1.5595
  31   0.0000       0.078748         2.1428

MULLIKEN ATOMIC CHARGES
-----------------------
   0 F :   -0.214959
   1 O :   -0.231543
   2 O :   -0.240727
   3 O :   -0.239909
   4 C :    0.241487
   5 C :   -0.008400
   6 C :    0.356438
   7 H :    0.096498
   8 H :    0.110968
   9 H :    0.130146
Sum of atomic charges:    0.0000000

LOEWDIN ATOMIC CHARGES
----------------------
   0 F :    0.120797
   1 O :    0.283333
   2 O :    0.265139
   3 O :    0.151761
   4 C :   -0.399264
   5 C :   -0.241397
   6 C :   -0.585881
   7 H :    0.132668
   8 H :    0.133208
   9 H :    0.139635

  Mayer bond orders larger than 0.100000
B(  0-F ,  4-C ) :   1.0447 B(  1-O ,  4-C ) :   1.0421 B(  1-O ,  6-C ) :   1.0797
B(  2-O ,  5-C ) :   0.9468 B(  2-O ,  6-C ) :   1.1549 B(  3-O ,  6-C ) :   2.1841
B(  4-C ,  5-C ) :   0.9752 B(  4-C ,  7-H ) :   0.9748 B(  5-C ,  8-H ) :   0.9460
B(  5-C ,  9-H ) :   0.9560

Dispersion correction           -0.012075319
FINAL SINGLE POINT ENERGY      -441.644557030070

DIPOLE MOMENT
-------------

Method             : SCF
Type of density    : Electron Density
Multiplicity       :   1
Irrep              :   0
Energy             :  -441.6324817110871663 Eh
Relativity type    :
Basis              : AO
                                X                 Y                 Z
Electronic contribution:      0.390240781       2.554344516      -1.807555054
Nuclear contribution   :     -1.847785760      -3.401133951       2.625384187
                        -----------------------------------------
Total Dipole Moment    :     -1.457544979      -0.846789435       0.817829133
                        -----------------------------------------
Magnitude (a.u.)       :      1.873588590
Magnitude (Debye)      :      4.762283730

Rotational constants in cm-1:             0.185639             0.080019             0.064143
Rotational constants in MHz :          5565.321347          2398.898683          1922.943855

                             ****ORCA TERMINATED NORMALLY****
TOTAL RUN TIME: 0 days 0 hours 2 minutes 26 seconds 134 msec
