                         Program Version 6.0.1  -  RELEASE   -
|  1> ! B3LYP D3BJ 6-311++G(d,p) Opt TightSCF RIJCOSX
|  2>
|  3> %maxcore 5000
|  4>
|  5> %pal
|  6> nprocs 32
|  7> end
|  8>
|  9> * xyz 0 1
| 10>   F          -1.89301596075366      0.66597098726226     -0.69135489914406
| 11>   O           0.04939793642097      0.91722464588469      0.44009556496219
| 12>   O           0.55763946449402     -1.17045043524101     -0.15539764768855
| 13>   O           2.16087405551391      0.41999520751740     -0.21533050767150
| 14>   C          -1.17984673250564      0.25605579222863      0.41492408780719
| 15>   C          -0.80120895807472     -1.21593033369283      0.28833194020295
| 16>   C           1.04709495587539      0.08120316204617     -0.00956435859207
| 17>   H          -1.75876439456511      0.52791078852933      1.29500878121697
| 18>   H          -0.85040051995893     -1.73773395933129      1.24482497526557
| 19>   H          -1.40846984644623     -1.72524585520334     -0.45623793635869
| 20> *
| 21>
| 22>                          ****END OF INPUT****
 Total Charge           Charge          ....    0
 Multiplicity           Mult            ....    1
 Number of Electrons    NEL             ....   54
Dispersion correction           -0.012075319
FINAL SINGLE POINT ENERGY      -441.589043532763
Dispersion correction             ... done (  0.1 sec)
Dispersion correction           -0.012068098
FINAL SINGLE POINT ENERGY      -441.589092522617
Dispersion correction             ... done (  0.1 sec)
Dispersion correction           -0.012067908
FINAL SINGLE POINT ENERGY      -441.589108660077
Dispersion correction             ... done (  0.1 sec)
FINAL SINGLE POINT ENERGY      -441.589116516584
Dispersion correction             ... done (  0.1 sec)
Dispersion correction           -0.012075018
FINAL SINGLE POINT ENERGY      -441.589119072980
Dispersion correction             ... done (  0.1 sec)
Dispersion correction           -0.012076812
FINAL SINGLE POINT ENERGY      -441.589118788508
Dispersion correction             ... done (  0.1 sec)
                    ***********************HURRAY********************

CARTESIAN COORDINATES (ANGSTROEM)
---------------------------------
  F     -1.872971    0.673013   -0.706287
  O      0.051327    0.911581    0.467741
  O      0.550404   -1.167996   -0.179110
  O      2.159066    0.422551   -0.218637
  C     -1.180120    0.255460    0.418096
  C     -0.803278   -1.217833    0.289163
  C      1.045735    0.080421   -0.010607
  H     -1.776050    0.528641    1.286653
  H     -0.831024   -1.732211    1.251938
  H     -1.419789   -1.734627   -0.443651

 Multiplicity           Mult            ....    1
 Number of Electrons    NEL             ....   54
 Basis Dimension        Dim             ....  175

ORBITAL ENERGIES
----------------

  NO   OCC          E(Eh)            E(eV)
   0   2.0000     -24.703466      -672.2155
   1   2.0000     -19.210422      -522.7422
   2   2.0000     -19.207668      -522.6672
   3   2.0000     -19.136353      -520.7266
   4   2.0000     -10.370877      -282.2059
   5   2.0000     -10.349478      -281.6236
   6   2.0000     -10.277733      -279.6713
   7   2.0000      -1.250130       -34.0178
   8   2.0000      -1.186117       -32.2759
   9   2.0000      -1.081579       -29.4313
  10   2.0000      -1.074597       -29.2413
  11   2.0000      -0.809096       -22.0166
  12   2.0000      -0.711355       -19.3569
  13   2.0000      -0.650653       -17.7052
  14   2.0000      -0.588937       -16.0258
  15   2.0000      -0.577381       -15.7113
  16   2.0000      -0.542946       -14.7743
  17   2.0000      -0.512914       -13.9571
  18   2.0000      -0.489056       -13.3079
  19   2.0000      -0.473185       -12.8760
  20   2.0000      -0.452574       -12.3152
  21   2.0000      -0.427073       -11.6213
  22   2.0000      -0.409541       -11.1442
  23   2.0000      -0.386029       -10.5044
  24   2.0000      -0.368098       -10.0165
  25   2.0000      -0.338281        -9.2051
  26   2.0000      -0.326212        -8.8767
  27   0.0000      -0.020667        -0.5624
  28   0.0000      -0.000359        -0.0098
  29   0.0000       0.005534         0.1506
  30   0.0000       0.008651         0.2354
  31   0.0000       0.019601         0.5334

MULLIKEN ATOMIC CHARGES
-----------------------
   0 F :   -0.139921
   1 O :   -0.109531
   2 O :   -0.117959
   3 O :   -0.307580
   4 C :   -0.041981
   5 C :   -0.236216
   6 C :    0.330885
   7 H :    0.222709
   8 H :    0.183724
   9 H :    0.215871
Sum of atomic charges:   -0.0000000

LOEWDIN ATOMIC CHARGES
----------------------
   0 F :   -0.149055
   1 O :   -0.067432
   2 O :   -0.088696
   3 O :   -0.093235
   4 C :    0.109598
   5 C :    0.074614
   6 C :    0.001801
   7 H :    0.072399
   8 H :    0.065111
   9 H :    0.074894

  Mayer bond orders larger than 0.100000
B(  0-F ,  4-C ) :   1.1763 B(  0-F ,  5-C ) :  -0.1424 B(  1-O ,  4-C ) :   1.0911
B(  1-O ,  6-C ) :   1.0359 B(  2-O ,  5-C ) :   1.0048 B(  2-O ,  6-C ) :   1.0888
B(  3-O ,  6-C ) :   1.9985 B(  4-C ,  5-C ) :   0.8828 B(  4-C ,  7-H ) :   0.9404
B(  5-C ,  8-H ) :   0.9443 B(  5-C ,  9-H ) :   0.9833

Dispersion correction           -0.012076541
FINAL SINGLE POINT ENERGY      -441.589119513644

DIPOLE MOMENT
-------------

Method             : SCF
Type of density    : Electron Density
Multiplicity       :   1
Irrep              :   0
Energy             :  -441.5770429723017969 Eh
Relativity type    :
Basis              : AO
                                X                 Y                 Z
Electronic contribution:      0.389464384       2.508747700      -1.763155642
Nuclear contribution   :     -1.879004990      -3.412080847       2.654000989
                        -----------------------------------------
Total Dipole Moment    :     -1.489540606      -0.903333147       0.890845347
                        -----------------------------------------
Magnitude (a.u.)       :      1.956616320
Magnitude (Debye)      :      4.973323450

Rotational constants in cm-1:             0.183589             0.080242             0.064543
Rotational constants in MHz :          5503.870834          2405.587506          1934.942531

                             ****ORCA TERMINATED NORMALLY****
TOTAL RUN TIME: 0 days 0 hours 1 minutes 2 seconds 188 msec
