                         Program Version 6.0.1  -  RELEASE   -
|  1> ! B3LYP D3BJ 6-311++G(d,p) Opt TightSCF RIJCOSX
|  2>
|  3> %maxcore 5000
|  4>
|  5> %pal
|  6> nprocs 32
|  7> end
|  8>
|  9> * xyz 0 1
| 10> F       -0.9675967824     -1.5056846508     -0.7671960635
| 11> F       -2.4691821828      0.3985957376     -0.6137845981
| 12> F       -0.0675560193      0.7371774169     -0.5326309567
| 13> P       -1.1886838856     -0.2196786198      0.3495802801
| 14> Li       1.6975379034      0.9143292994      1.0732890841
| 15> F       -2.3113875884     -1.1759684760      1.2303524820
| 16> F        0.0904919538     -0.8397858396      1.3142869756
| 17> F       -1.4079879870      1.0670209239      1.4671175918
| 18> *
| 19>
| 20>                          ****END OF INPUT****
 Total Charge           Charge          ....    0
 Multiplicity           Mult            ....    1
 Number of Electrons    NEL             ....   72
Dispersion correction           -0.010932696
FINAL SINGLE POINT ENERGY      -948.076711714634
Dispersion correction             ... done (  0.1 sec)
Dispersion correction           -0.011129292
FINAL SINGLE POINT ENERGY      -948.097929764106
Dispersion correction             ... done (  0.1 sec)
Dispersion correction           -0.011323605
FINAL SINGLE POINT ENERGY      -948.110884467060
Dispersion correction             ... done (  0.1 sec)
FINAL SINGLE POINT ENERGY      -948.117849785875
FINAL SINGLE POINT ENERGY      -948.126600990589
FINAL SINGLE POINT ENERGY      -948.132087955589
FINAL SINGLE POINT ENERGY      -948.132936447511
FINAL SINGLE POINT ENERGY      -948.133612812481
FINAL SINGLE POINT ENERGY      -948.134077750997
FINAL SINGLE POINT ENERGY      -948.134515727418
FINAL SINGLE POINT ENERGY      -948.134674189298
FINAL SINGLE POINT ENERGY      -948.134749133627
FINAL SINGLE POINT ENERGY      -948.134810912453
Dispersion correction             ... done (  0.1 sec)
Dispersion correction           -0.011841394
FINAL SINGLE POINT ENERGY      -948.134824352009
Dispersion correction             ... done (  0.1 sec)
Dispersion correction           -0.011841098
FINAL SINGLE POINT ENERGY      -948.134827056043
Dispersion correction             ... done (  0.1 sec)
                    ***********************HURRAY********************

CARTESIAN COORDINATES (ANGSTROEM)
---------------------------------
  F     -1.022692   -1.475903   -0.737669
  F     -2.303775    0.471651   -0.507791
  F      0.044285    0.611115   -0.546455
  P     -1.154945   -0.276719    0.298578
  Li     0.827799    0.927672    1.158243
  F     -2.151503   -1.045978    1.270320
  F      0.191310   -0.865941    1.181682
  F     -1.054843    1.030109    1.404107

 Multiplicity           Mult            ....    1
 Number of Electrons    NEL             ....   72
 Basis Dimension        Dim             ....  184

ORBITAL ENERGIES
----------------

  NO   OCC          E(Eh)            E(eV)
   0   2.0000     -77.325621     -2104.1371
   1   2.0000     -24.696554      -672.0274
   2   2.0000     -24.696504      -672.0260
   3   2.0000     -24.696392      -672.0230
   4   2.0000     -24.689890      -671.8461
   5   2.0000     -24.689819      -671.8441
   6   2.0000     -24.689711      -671.8412
   7   2.0000      -6.788669      -184.7291
   8   2.0000      -4.952246      -134.7575
   9   2.0000      -4.951856      -134.7469
  10   2.0000      -4.951853      -134.7468
  11   2.0000      -2.059310       -56.0367
  12   2.0000      -1.298227       -35.3266
  13   2.0000      -1.227665       -33.4065
  14   2.0000      -1.221310       -33.2335
  15   2.0000      -1.221223       -33.2312
  16   2.0000      -1.191396       -32.4195
  17   2.0000      -1.191310       -32.4172
  18   2.0000      -0.701528       -19.0896
  19   2.0000      -0.588098       -16.0030
  20   2.0000      -0.583535       -15.8788
  21   2.0000      -0.583470       -15.8770
  22   2.0000      -0.521494       -14.1906
  23   2.0000      -0.510435       -13.8896
  24   2.0000      -0.510393       -13.8885
  25   2.0000      -0.484592       -13.1864
  26   2.0000      -0.484524       -13.1846
  27   2.0000      -0.444728       -12.1017
  28   2.0000      -0.443929       -12.0799
  29   2.0000      -0.443865       -12.0782
  30   2.0000      -0.435366       -11.8469
  31   2.0000      -0.435264       -11.8441
  32   2.0000      -0.430807       -11.7228
  33   2.0000      -0.405301       -11.0288
  34   2.0000      -0.405265       -11.0278
  35   2.0000      -0.400670       -10.9028
  36   0.0000      -0.059526        -1.6198
  37   0.0000      -0.005447        -0.1482
  38   0.0000       0.002689         0.0732
  39   0.0000       0.002696         0.0734
  40   0.0000       0.005877         0.1599

MULLIKEN ATOMIC CHARGES
-----------------------
   0 F :   -0.109481
   1 F :   -0.109613
   2 F :   -0.250169
   3 P :    0.514086
   4 Li:    0.564763
   5 F :   -0.109399
   6 F :   -0.249925
   7 F :   -0.250263
Sum of atomic charges:   -0.0000000

LOEWDIN ATOMIC CHARGES
----------------------
   0 F :   -0.334178
   1 F :   -0.334300
   2 F :   -0.298097
   3 P :    1.634490
   4 Li:    0.261934
   5 F :   -0.334119
   6 F :   -0.298103
   7 F :   -0.297628

  Mayer bond orders larger than 0.100000
B(  0-F ,  3-P ) :   1.1639 B(  1-F ,  3-P ) :   1.1636 B(  2-F ,  3-P ) :   0.7973
B(  2-F ,  4-Li) :   0.2470 B(  3-P ,  5-F ) :   1.1638 B(  3-P ,  6-F ) :   0.7985
B(  3-P ,  7-F ) :   0.7977 B(  4-Li,  6-F ) :   0.2465 B(  4-Li,  7-F ) :   0.2474

Dispersion correction           -0.011840783
FINAL SINGLE POINT ENERGY      -948.134827226264

DIPOLE MOMENT
-------------

Method             : SCF
Type of density    : Electron Density
Multiplicity       :   1
Irrep              :   0
Energy             :  -948.1229864433828425 Eh
Relativity type    :
Basis              : AO
                                X                 Y                 Z
Electronic contribution:      3.229722407       1.960918588       1.402081873
Nuclear contribution   :     -1.092101560      -0.663393061      -0.473492656
                        -----------------------------------------
Total Dipole Moment    :      2.137620846       1.297525527       0.928589217
                        -----------------------------------------
Magnitude (a.u.)       :      2.667446965
Magnitude (Debye)      :      6.780111360

Rotational constants in cm-1:             0.083080             0.068552             0.068531
Rotational constants in MHz :          2490.674046          2055.124770          2054.500742

                             ****ORCA TERMINATED NORMALLY****
TOTAL RUN TIME: 0 days 0 hours 2 minutes 28 seconds 120 msec
