                         Program Version 6.0.1  -  RELEASE   -
|  1> ! B3LYP D3BJ 6-311++G(d,p) Opt TightSCF RIJCOSX
|  2>
|  3> %maxcore 5000
|  4>
|  5> %pal
|  6> nprocs 32
|  7> end
|  8>
|  9> * xyz 0 1
| 10>   O           0.00733284350875      1.11399078918341      0.00204537028447
| 11>   O           0.00709557691569     -1.11404130992094     -0.00197593164161
| 12>   O           1.97127960243914     -0.00023543378367     -0.00028662719366
| 13>   C          -1.36676765285451      0.74454086218088      0.17438887885103
| 14>   C          -1.36701136805709     -0.74427550292040     -0.17382652008983
| 15>   C           0.78448654550527     -0.00011297375654     -0.00011778161346
| 16>   H          -1.97810858944441      1.34840394166325     -0.49253595022678
| 17>   H          -1.65374303169424      0.93424113307576      1.21032672554946
| 18>   H          -1.97820851117037     -1.34799639213052      0.49335065664698
| 19>   H          -1.65435541514824     -0.93391511359124     -1.20966882056660
| 20> *
| 21>
| 22>                          ****END OF INPUT****
 Total Charge           Charge          ....    0
 Multiplicity           Mult            ....    1
 Number of Electrons    NEL             ....   46
Dispersion correction           -0.011636006
FINAL SINGLE POINT ENERGY      -342.343780044607
Dispersion correction             ... done (  0.1 sec)
Dispersion correction           -0.011629400
FINAL SINGLE POINT ENERGY      -342.343822991332
Dispersion correction             ... done (  0.1 sec)
Dispersion correction           -0.011629217
FINAL SINGLE POINT ENERGY      -342.343839670987
Dispersion correction             ... done (  0.1 sec)
FINAL SINGLE POINT ENERGY      -342.343851467178
FINAL SINGLE POINT ENERGY      -342.343854591921
Dispersion correction             ... done (  0.1 sec)
Dispersion correction           -0.011642020
FINAL SINGLE POINT ENERGY      -342.343856669841
Dispersion correction             ... done (  0.1 sec)
Dispersion correction           -0.011640434
FINAL SINGLE POINT ENERGY      -342.343857961542
Dispersion correction             ... done (  0.1 sec)
                    ***********************HURRAY********************

CARTESIAN COORDINATES (ANGSTROEM)
---------------------------------
  O      0.003061    1.115573   -0.034656
  O      0.002829   -1.115629    0.034686
  O      1.970199   -0.000229   -0.000244
  C     -1.369107    0.744627    0.175375
  C     -1.369404   -0.744349   -0.174819
  C      0.782062   -0.000104   -0.000128
  H     -1.997846    1.350384   -0.474965
  H     -1.625611    0.930001    1.221393
  H     -1.997937   -1.349997    0.475815
  H     -1.626246   -0.929677   -1.220756

 Multiplicity           Mult            ....    1
 Number of Electrons    NEL             ....   46
 Basis Dimension        Dim             ....  160

ORBITAL ENERGIES
----------------

  NO   OCC          E(Eh)            E(eV)
   0   2.0000     -19.189304      -522.1675
   1   2.0000     -19.189228      -522.1654
   2   2.0000     -19.117857      -520.2233
   3   2.0000     -10.352790      -281.7137
   4   2.0000     -10.263263      -279.2776
   5   2.0000     -10.263037      -279.2714
   6   2.0000      -1.170916       -31.8623
   7   2.0000      -1.058823       -28.8120
   8   2.0000      -1.054277       -28.6883
   9   2.0000      -0.798357       -21.7244
  10   2.0000      -0.692934       -18.8557
  11   2.0000      -0.619824       -16.8663
  12   2.0000      -0.559125       -15.2146
  13   2.0000      -0.531576       -14.4649
  14   2.0000      -0.518402       -14.1064
  15   2.0000      -0.457670       -12.4538
  16   2.0000      -0.452475       -12.3125
  17   2.0000      -0.450797       -12.2668
  18   2.0000      -0.393936       -10.7195
  19   2.0000      -0.390220       -10.6184
  20   2.0000      -0.325767        -8.8646
  21   2.0000      -0.323479        -8.8023
  22   2.0000      -0.307590        -8.3699
  23   0.0000      -0.019506        -0.5308
  24   0.0000       0.000600         0.0163
  25   0.0000       0.004700         0.1279
  26   0.0000       0.010429         0.2838
  27   0.0000       0.021440         0.5834

MULLIKEN ATOMIC CHARGES
-----------------------
   0 O :   -0.130040
   1 O :   -0.130081
   2 O :   -0.330277
   3 C :   -0.223307
   4 C :   -0.223279
   5 C :    0.331692
   6 H :    0.174029
   7 H :    0.178607
   8 H :    0.174040
   9 H :    0.178616
Sum of atomic charges:    0.0000000

LOEWDIN ATOMIC CHARGES
----------------------
   0 O :   -0.110081
   1 O :   -0.110124
   2 O :   -0.117678
   3 C :    0.060033
   4 C :    0.060076
   5 C :   -0.012858
   6 H :    0.057923
   7 H :    0.057389
   8 H :    0.057927
   9 H :    0.057391

  Mayer bond orders larger than 0.100000
B(  0-O ,  3-C ) :   0.9963 B(  0-O ,  5-C ) :   1.0842 B(  1-O ,  4-C ) :   0.9963
B(  1-O ,  5-C ) :   1.0843 B(  2-O ,  5-C ) :   1.9723 B(  3-C ,  4-C ) :   0.8332
B(  3-C ,  6-H ) :   0.9877 B(  3-C ,  7-H ) :   0.9607 B(  4-C ,  8-H ) :   0.9877
B(  4-C ,  9-H ) :   0.9607

Dispersion correction           -0.011640261
FINAL SINGLE POINT ENERGY      -342.343857978297

DIPOLE MOMENT
-------------

Method             : SCF
Type of density    : Electron Density
Multiplicity       :   1
Irrep              :   0
Energy             :  -342.3322177174508170 Eh
Relativity type    :
Basis              : AO
                                X                 Y                 Z
Electronic contribution:      4.588500644      -0.000474257      -0.000903303
Nuclear contribution   :     -6.805304878       0.000738588       0.001254738
                        -----------------------------------------
Total Dipole Moment    :     -2.216804234       0.000264331       0.000351435
                        -----------------------------------------
Magnitude (a.u.)       :      2.216804277
Magnitude (Debye)      :      5.634668678

Rotational constants in cm-1:             0.268465             0.127768             0.090357
Rotational constants in MHz :          8048.364335          3830.378624          2708.849438

                             ****ORCA TERMINATED NORMALLY****
TOTAL RUN TIME: 0 days 0 hours 1 minutes 8 seconds 436 msec
