                         Program Version 6.0.1  -  RELEASE   -
|  1> ! Opt B3LYP D4 def2-TZVP TightSCF TightOpt  RIJCOSX def2/J
|  2>
|  3> %maxcore 5000
|  4>
|  5> %pal
|  6> nprocs 18
|  7> end
|  8>
|  9> * xyz 0 1
| 10>   Li         -3.05736949492775      2.40996761486557     -1.72723063184221
| 11>   F          -1.47517471065306      5.84938351487736     -0.63114568946232
| 12>   P          -2.38835571911126      4.85765885235954      0.18241539297365
| 13>   O          -2.48069853759363      3.60179477385979     -0.61956579678572
| 14>   O          -3.57681256875554      5.55570899182973      0.68974465074209
| 15>   F          -1.38259296895873      4.56586125220794      1.35734507437451
| 16> *
| 17>
| 18>
| 19>                          ****END OF INPUT****
 Total Charge           Charge          ....    0
 Multiplicity           Mult            ....    1
 Number of Electrons    NEL             ....   52
Dispersion correction           -0.007998039
FINAL SINGLE POINT ENERGY      -699.238686835412
Dispersion correction             ... done (  0.0 sec)
Dispersion correction           -0.008005333
FINAL SINGLE POINT ENERGY      -699.239567137710
Dispersion correction             ... done (  0.0 sec)
Dispersion correction           -0.008024883
FINAL SINGLE POINT ENERGY      -699.240471944188
Dispersion correction             ... done (  0.0 sec)
FINAL SINGLE POINT ENERGY      -699.240621878836
FINAL SINGLE POINT ENERGY      -699.240828951881
FINAL SINGLE POINT ENERGY      -699.240850036440
FINAL SINGLE POINT ENERGY      -699.240862730311
FINAL SINGLE POINT ENERGY      -699.240868083777
FINAL SINGLE POINT ENERGY      -699.240883349934
FINAL SINGLE POINT ENERGY      -699.240909778950
FINAL SINGLE POINT ENERGY      -699.256315778014
FINAL SINGLE POINT ENERGY      -699.257185840979
FINAL SINGLE POINT ENERGY      -699.253606930052
FINAL SINGLE POINT ENERGY      -699.257414245648
FINAL SINGLE POINT ENERGY      -699.257461556410
FINAL SINGLE POINT ENERGY      -699.257465729133
FINAL SINGLE POINT ENERGY      -699.257467417336
Dispersion correction             ... done (  0.0 sec)
Dispersion correction           -0.008221392
FINAL SINGLE POINT ENERGY      -699.257467885818
Dispersion correction             ... done (  0.0 sec)
Dispersion correction           -0.008221402
FINAL SINGLE POINT ENERGY      -699.257468008716
Dispersion correction             ... done (  0.0 sec)
                    ***********************HURRAY********************

CARTESIAN COORDINATES (ANGSTROEM)
---------------------------------
  Li    -3.662804    3.240473   -0.976718
  F     -1.554122    6.001450   -0.500453
  P     -2.183790    4.676952    0.015802
  O     -1.787699    3.510964   -0.831615
  O     -3.670272    4.783717    0.131988
  F     -1.502316    4.626820    1.412560

 Multiplicity           Mult            ....    1
 Number of Electrons    NEL             ....   52
 Basis Dimension        Dim             ....  175

ORBITAL ENERGIES
----------------

  NO   OCC          E(Eh)            E(eV)
   0   2.0000     -77.201162     -2100.7504
   1   2.0000     -24.706981      -672.3111
   2   2.0000     -24.706948      -672.3102
   3   2.0000     -19.103314      -519.8276
   4   2.0000     -19.103258      -519.8261
   5   2.0000      -6.665775      -181.3850
   6   2.0000      -4.829979      -131.4304
   7   2.0000      -4.828088      -131.3789
   8   2.0000      -4.825522      -131.3091
   9   2.0000      -2.025760       -55.1237
  10   2.0000      -1.259878       -34.2830
  11   2.0000      -1.220802       -33.2197
  12   2.0000      -1.019914       -27.7533
  13   2.0000      -0.960620       -26.1398
  14   2.0000      -0.622452       -16.9378
  15   2.0000      -0.551921       -15.0185
  16   2.0000      -0.502708       -13.6794
  17   2.0000      -0.501124       -13.6363
  18   2.0000      -0.461339       -12.5537
  19   2.0000      -0.445579       -12.1248
  20   2.0000      -0.443890       -12.0789
  21   2.0000      -0.395712       -10.7679
  22   2.0000      -0.377834       -10.2814
  23   2.0000      -0.355539        -9.6747
  24   2.0000      -0.311905        -8.4874
  25   2.0000      -0.305187        -8.3046
  26   0.0000      -0.045621        -1.2414
  27   0.0000       0.027334         0.7438
  28   0.0000       0.041453         1.1280
  29   0.0000       0.051799         1.4095
  30   0.0000       0.099675         2.7123

MULLIKEN ATOMIC CHARGES
-----------------------
   0 Li:    0.800875
   1 F :   -0.254747
   2 P :    0.992701
   3 O :   -0.641926
   4 O :   -0.641965
   5 F :   -0.254938
Sum of atomic charges:   -0.0000000

LOEWDIN ATOMIC CHARGES
----------------------
   0 Li:    0.616567
   1 F :    0.011072
   2 P :   -0.039223
   3 O :   -0.299612
   4 O :   -0.299657
   5 F :    0.010853

  Mayer bond orders larger than 0.100000
B(  0-Li,  3-O ) :   0.1767 B(  0-Li,  4-O ) :   0.1767 B(  1-F ,  2-P ) :   1.1229
B(  2-P ,  3-O ) :   1.6834 B(  2-P ,  4-O ) :   1.6834 B(  2-P ,  5-F ) :   1.1226

Dispersion correction           -0.008221363
FINAL SINGLE POINT ENERGY      -699.257468024889

DIPOLE MOMENT
-------------

Method             : SCF
Type of density    : Electron Density
Multiplicity       :   1
Irrep              :   0
Energy             :  -699.2492466619332845 Eh
Relativity type    :
Basis              : AO
                                X                 Y                 Z
Electronic contribution:     -1.237014513      -1.201411361      -0.831594779
Nuclear contribution   :     -0.018290273      -0.018140910      -0.012188058
                        -----------------------------------------
Total Dipole Moment    :     -1.255304786      -1.219552271      -0.843782837
                        -----------------------------------------
Magnitude (a.u.)       :      1.942953247
Magnitude (Debye)      :      4.938594678

Rotational constants in cm-1:             0.166127             0.114841             0.111794
Rotational constants in MHz :          4980.351487          3442.839605          3351.488326

                             ****ORCA TERMINATED NORMALLY****
TOTAL RUN TIME: 0 days 0 hours 3 minutes 36 seconds 218 msec
