                         Program Version 6.0.1  -  RELEASE   -
|  1> ! B3LYP D3BJ 6-311++G(d,p) Opt TightSCF RIJCOSX
|  2>
|  3> %maxcore 5000
|  4>
|  5> %pal
|  6> nprocs 28
|  7> end
|  8>
|  9> * xyz 0 1
| 10>   Li         -3.05736949492775      2.40996761486557     -1.72723063184221
| 11>   F          -1.47517471065306      5.84938351487736     -0.63114568946232
| 12>   P          -2.38835571911126      4.85765885235954      0.18241539297365
| 13>   O          -2.48069853759363      3.60179477385979     -0.61956579678572
| 14>   O          -3.57681256875554      5.55570899182973      0.68974465074209
| 15>   F          -1.38259296895873      4.56586125220794      1.35734507437451
| 16> *
| 17>
| 18>
| 19>                          ****END OF INPUT****
 Total Charge           Charge          ....    0
 Multiplicity           Mult            ....    1
 Number of Electrons    NEL             ....   52
Dispersion correction           -0.007975089
FINAL SINGLE POINT ENERGY      -699.147623159176
Dispersion correction             ... done (  0.1 sec)
Dispersion correction           -0.007966901
FINAL SINGLE POINT ENERGY      -699.149183835892
Dispersion correction             ... done (  0.1 sec)
Dispersion correction           -0.007962012
FINAL SINGLE POINT ENERGY      -699.150179537645
Dispersion correction             ... done (  0.1 sec)
FINAL SINGLE POINT ENERGY      -699.150293342020
FINAL SINGLE POINT ENERGY      -699.150443962034
FINAL SINGLE POINT ENERGY      -699.150486128443
FINAL SINGLE POINT ENERGY      -699.150502135044
FINAL SINGLE POINT ENERGY      -699.150506121285
FINAL SINGLE POINT ENERGY      -699.150510741167
FINAL SINGLE POINT ENERGY      -699.150516758428
FINAL SINGLE POINT ENERGY      -699.150525614774
FINAL SINGLE POINT ENERGY      -699.150535443978
FINAL SINGLE POINT ENERGY      -699.150540859476
Dispersion correction             ... done (  0.1 sec)
Dispersion correction           -0.007980756
FINAL SINGLE POINT ENERGY      -699.150542191647
Dispersion correction             ... done (  0.1 sec)
Dispersion correction           -0.007980775
FINAL SINGLE POINT ENERGY      -699.150542437959
Dispersion correction             ... done (  0.1 sec)
                    ***********************HURRAY********************

CARTESIAN COORDINATES (ANGSTROEM)
---------------------------------
  Li    -3.014603    2.402857   -1.673168
  F     -1.454484    5.858011   -0.644011
  P     -2.406688    4.880547    0.187987
  O     -2.513562    3.623894   -0.664898
  O     -3.599731    5.566373    0.701212
  F     -1.371936    4.508694    1.344441

 Multiplicity           Mult            ....    1
 Number of Electrons    NEL             ....   52
 Basis Dimension        Dim             ....  140

ORBITAL ENERGIES
----------------

  NO   OCC          E(Eh)            E(eV)
   0   2.0000     -77.194191     -2100.5607
   1   2.0000     -24.674400      -671.4245
   2   2.0000     -24.673938      -671.4120
   3   2.0000     -19.107136      -519.9316
   4   2.0000     -19.070470      -518.9339
   5   2.0000      -6.672813      -181.5765
   6   2.0000      -4.836412      -131.6055
   7   2.0000      -4.835089      -131.5695
   8   2.0000      -4.832353      -131.4950
   9   2.0000      -2.056944       -55.9723
  10   2.0000      -1.227316       -33.3970
  11   2.0000      -1.189888       -32.3785
  12   2.0000      -1.005295       -27.3555
  13   2.0000      -0.953049       -25.9338
  14   2.0000      -0.602204       -16.3868
  15   2.0000      -0.523970       -14.2579
  16   2.0000      -0.496083       -13.4991
  17   2.0000      -0.467899       -12.7322
  18   2.0000      -0.436547       -11.8791
  19   2.0000      -0.432974       -11.7818
  20   2.0000      -0.413410       -11.2495
  21   2.0000      -0.380065       -10.3421
  22   2.0000      -0.349196        -9.5021
  23   2.0000      -0.342676        -9.3247
  24   2.0000      -0.293032        -7.9738
  25   2.0000      -0.283453        -7.7132
  26   0.0000      -0.075347        -2.0503
  27   0.0000      -0.010738        -0.2922
  28   0.0000      -0.009728        -0.2647
  29   0.0000      -0.001706        -0.0464
  30   0.0000       0.007220         0.1965

MULLIKEN ATOMIC CHARGES
-----------------------
   0 Li:    0.712866
   1 F :   -0.214908
   2 P :    0.748924
   3 O :   -0.647338
   4 O :   -0.388134
   5 F :   -0.211410
Sum of atomic charges:    0.0000000

LOEWDIN ATOMIC CHARGES
----------------------
   0 Li:    0.471371
   1 F :   -0.378818
   2 P :    1.419534
   3 O :   -0.508924
   4 O :   -0.627525
   5 F :   -0.375639

  Mayer bond orders larger than 0.100000
B(  0-Li,  3-O ) :   0.5735 B(  1-F ,  2-P ) :   1.0092 B(  2-P ,  3-O ) :   1.4594
B(  2-P ,  4-O ) :   2.0810 B(  2-P ,  5-F ) :   1.0095

Dispersion correction           -0.007980888
FINAL SINGLE POINT ENERGY      -699.150542654628

DIPOLE MOMENT
-------------

Method             : SCF
Type of density    : Electron Density
Multiplicity       :   1
Irrep              :   0
Energy             :  -699.1425617664624497 Eh
Relativity type    :
Basis              : AO
                                X                 Y                 Z
Electronic contribution:      0.462508275      -4.348033791      -3.401657527
Nuclear contribution   :     -0.898605930       1.123917880       0.931325293
                        -----------------------------------------
Total Dipole Moment    :     -0.436097655      -3.224115911      -2.470332233
                        -----------------------------------------
Magnitude (a.u.)       :      4.085051520
Magnitude (Debye)      :     10.383375782

Rotational constants in cm-1:             0.149323             0.096431             0.094760
Rotational constants in MHz :          4476.605121          2890.918967          2840.834856

                             ****ORCA TERMINATED NORMALLY****
TOTAL RUN TIME: 0 days 0 hours 1 minutes 53 seconds 762 msec
