                         Program Version 6.0.1  -  RELEASE   -
|  1> ! Opt B3LYP def2-TZVP TightSCF TightOpt D3BJ RIJCOSX
|  2>
|  3> %maxcore 5000
|  4>
|  5> %pal
|  6> nprocs 28
|  7> end
|  8>
|  9> * xyz 0 1
| 10>   Li         -3.48123833924659      2.94792603547022     -1.70651647920000
| 11>   F          -1.75894983459213      5.86628105178845     -0.74431350725351
| 12>   O          -0.96827110806823      3.72304817790567      0.17769453646438
| 13>   P          -2.50296554947500      4.56080448578364     -0.17237934069674
| 14>   F          -3.74878867689114      5.51068463702191      0.41441315938452
| 15>   O          -1.90079024262689      4.23163055683005      1.28266370860136
| 16> *
| 17>
| 18>
| 19>                          ****END OF INPUT****
 Total Charge           Charge          ....    0
 Multiplicity           Mult            ....    1
 Number of Electrons    NEL             ....   52
 Basis Dimension        Dim             ....  175

ORBITAL ENERGIES
----------------

  NO   OCC          E(Eh)            E(eV)
   0   2.0000     -77.160419     -2099.6418
   1   2.0000     -24.654026      -670.8702
   2   2.0000     -24.625067      -670.0821
   3   2.0000     -19.151063      -521.1269
   4   2.0000     -19.121141      -520.3127
   5   2.0000      -6.624449      -180.2604
   6   2.0000      -4.787374      -130.2711
   7   2.0000      -4.787169      -130.2655
   8   2.0000      -4.783139      -130.1558
   9   2.0000      -2.099799       -57.1384
  10   2.0000      -1.187234       -32.3063
  11   2.0000      -1.133594       -30.8467
  12   2.0000      -1.072539       -29.1853
  13   2.0000      -0.811359       -22.0782
  14   2.0000      -0.597665       -16.2633
  15   2.0000      -0.479965       -13.0605
  16   2.0000      -0.470678       -12.8078
  17   2.0000      -0.451519       -12.2864
  18   2.0000      -0.421895       -11.4804
  19   2.0000      -0.402885       -10.9631
  20   2.0000      -0.379260       -10.3202
  21   2.0000      -0.367741       -10.0067
  22   2.0000      -0.356347        -9.6967
  23   2.0000      -0.306353        -8.3363
  24   2.0000      -0.256715        -6.9856
  25   2.0000      -0.229267        -6.2387
  26   0.0000      -0.086991        -2.3672
  27   0.0000      -0.043264        -1.1773
  28   0.0000      -0.028972        -0.7884
  29   0.0000       0.012468         0.3393
  30   0.0000       0.051330         1.3968

MULLIKEN ATOMIC CHARGES
-----------------------
   0 Li:    0.721554
   1 F :   -0.279076
   2 O :   -0.348024
   3 P :    0.490872
   4 F :   -0.351516
   5 O :   -0.233810
Sum of atomic charges:    0.0000000

LOEWDIN ATOMIC CHARGES
----------------------
   0 Li:    0.548175
   1 F :   -0.078489
   2 O :   -0.227826
   3 P :    0.023992
   4 F :   -0.178764
   5 O :   -0.087088

  Mayer bond orders larger than 0.100000
B(  0-Li,  3-P ) :   0.4029 B(  1-F ,  3-P ) :   1.0175 B(  2-O ,  3-P ) :   0.7671
B(  2-O ,  5-O ) :   0.8449 B(  3-P ,  4-F ) :   0.9045 B(  3-P ,  5-O ) :   1.1000

Dispersion correction           -0.008136584
FINAL SINGLE POINT ENERGY      -699.014540873756
Dispersion correction             ... done (  0.1 sec)
Dispersion correction           -0.008174145
FINAL SINGLE POINT ENERGY      -699.016291842083
Dispersion correction             ... done (  0.1 sec)
Dispersion correction           -0.008257954
FINAL SINGLE POINT ENERGY      -699.017873690234
Dispersion correction             ... done (  0.1 sec)
FINAL SINGLE POINT ENERGY      -699.018014385474
FINAL SINGLE POINT ENERGY      -699.018458844846
FINAL SINGLE POINT ENERGY      -699.018783104218
FINAL SINGLE POINT ENERGY      -699.020465270047
FINAL SINGLE POINT ENERGY      -699.022795903577
FINAL SINGLE POINT ENERGY      -699.026324005519
FINAL SINGLE POINT ENERGY      -699.029627985498
FINAL SINGLE POINT ENERGY      -699.061471374515
FINAL SINGLE POINT ENERGY      -699.061479274181
FINAL SINGLE POINT ENERGY      -699.061485012887
FINAL SINGLE POINT ENERGY      -699.061488420118
FINAL SINGLE POINT ENERGY      -699.061494149352
FINAL SINGLE POINT ENERGY      -699.061498356964
FINAL SINGLE POINT ENERGY      -699.061497285830
Dispersion correction           -0.007792519
FINAL SINGLE POINT ENERGY      -699.061500891842
Dispersion correction             ... done (  0.1 sec)
Dispersion correction           -0.007790981
FINAL SINGLE POINT ENERGY      -699.061501225463
Dispersion correction             ... done (  0.1 sec)

CARTESIAN COORDINATES (ANGSTROEM)
---------------------------------
  Li    -2.341874    2.122911   -0.139237
  F     -1.469714    6.130700    0.055426
  O     -1.509574    3.433684   -0.888831
  P     -2.737460    5.366101   -0.527437
  F     -3.777980    5.884222    0.587324
  O     -2.524401    3.902756    0.164317

Dispersion correction           -0.007789160
FINAL SINGLE POINT ENERGY      -699.061501314642
Dispersion correction             ... done (  0.1 sec)
                             ****ORCA TERMINATED NORMALLY****
TOTAL RUN TIME: 0 days 0 hours 6 minutes 36 seconds 516 msec
