                         Program Version 6.0.1  -  RELEASE   -
|  1> ! Opt B3LYP def2-TZVP TightSCF TightOpt D3BJ RIJCOSX
|  2>
|  3> %maxcore 5000
|  4>
|  5> %pal
|  6> nprocs 32
|  7> end
|  8>
|  9> * xyz 0 1
| 10> O         -0.01810        1.11950       -0.11210
| 11> O         -0.01830       -1.11960        0.11150
| 12> O          1.98220       -0.00010        0.00040
| 13> C         -1.35290        0.72760        0.17230
| 14> C         -1.35320       -0.72740       -0.17180
| 15> C          0.76030       -0.00010       -0.00030
| 16> H         -2.06510        1.30160       -0.42630
| 17> H         -1.54830        0.90660        1.23480
| 18> H         -2.06510       -1.30120        0.42740
| 19> H         -1.54950       -0.90630       -1.23420
| 20> *
| 21>
| 22>                          ****END OF INPUT****
 Total Charge           Charge          ....    0
 Multiplicity           Mult            ....    1
 Number of Electrons    NEL             ....   46
Dispersion correction           -0.011681502
FINAL SINGLE POINT ENERGY      -342.381972733802
Dispersion correction             ... done (  0.0 sec)
Dispersion correction           -0.011680443
FINAL SINGLE POINT ENERGY      -342.385165771623
Dispersion correction             ... done (  0.0 sec)
Dispersion correction           -0.011668027
FINAL SINGLE POINT ENERGY      -342.385656777611
Dispersion correction             ... done (  0.0 sec)
FINAL SINGLE POINT ENERGY      -342.385776624288
FINAL SINGLE POINT ENERGY      -342.385817633529
FINAL SINGLE POINT ENERGY      -342.385892527020
FINAL SINGLE POINT ENERGY      -342.385909590071
FINAL SINGLE POINT ENERGY      -342.385921984842
Dispersion correction             ... done (  0.0 sec)
Dispersion correction           -0.011636949
FINAL SINGLE POINT ENERGY      -342.385923939419
Dispersion correction             ... done (  0.0 sec)
Dispersion correction           -0.011636172
FINAL SINGLE POINT ENERGY      -342.385924349802
Dispersion correction             ... done (  0.0 sec)
                    ***********************HURRAY********************

CARTESIAN COORDINATES (ANGSTROEM)
---------------------------------
  O      0.007333    1.113991    0.002045
  O      0.007096   -1.114041   -0.001976
  O      1.971280   -0.000235   -0.000287
  C     -1.366768    0.744541    0.174389
  C     -1.367011   -0.744276   -0.173827
  C      0.784487   -0.000113   -0.000118
  H     -1.978109    1.348404   -0.492536
  H     -1.653743    0.934241    1.210327
  H     -1.978209   -1.347996    0.493351
  H     -1.654355   -0.933915   -1.209669

 Multiplicity           Mult            ....    1
 Number of Electrons    NEL             ....   46
 Basis Dimension        Dim             ....  210

ORBITAL ENERGIES
----------------

  NO   OCC          E(Eh)            E(eV)
   0   2.0000     -19.189368      -522.1693
   1   2.0000     -19.189285      -522.1670
   2   2.0000     -19.115386      -520.1561
   3   2.0000     -10.347297      -281.5643
   4   2.0000     -10.260089      -279.1912
   5   2.0000     -10.259872      -279.1853
   6   2.0000      -1.164827       -31.6966
   7   2.0000      -1.053860       -28.6770
   8   2.0000      -1.047563       -28.5056
   9   2.0000      -0.793727       -21.5984
  10   2.0000      -0.689071       -18.7506
  11   2.0000      -0.616479       -16.7752
  12   2.0000      -0.554593       -15.0913
  13   2.0000      -0.528182       -14.3726
  14   2.0000      -0.515669       -14.0321
  15   2.0000      -0.453946       -12.3525
  16   2.0000      -0.449581       -12.2337
  17   2.0000      -0.446560       -12.1515
  18   2.0000      -0.390231       -10.6187
  19   2.0000      -0.388111       -10.5610
  20   2.0000      -0.322097        -8.7647
  21   2.0000      -0.319984        -8.7072
  22   2.0000      -0.304556        -8.2874
  23   0.0000       0.017910         0.4874
  24   0.0000       0.027193         0.7400
  25   0.0000       0.031794         0.8652
  26   0.0000       0.058084         1.5806
  27   0.0000       0.067105         1.8260

MULLIKEN ATOMIC CHARGES
-----------------------
   0 O :   -0.251685
   1 O :   -0.251735
   2 O :   -0.264669
   3 C :   -0.013255
   4 C :   -0.013254
   5 C :    0.354630
   6 H :    0.114913
   7 H :    0.105064
   8 H :    0.114918
   9 H :    0.105072
Sum of atomic charges:   -0.0000000

LOEWDIN ATOMIC CHARGES
----------------------
   0 O :    0.250149
   1 O :    0.250097
   2 O :    0.131110
   3 C :   -0.265563
   4 C :   -0.265529
   5 C :   -0.608980
   6 H :    0.128932
   7 H :    0.125426
   8 H :    0.128932
   9 H :    0.125427

  Mayer bond orders larger than 0.100000
B(  0-O ,  3-C ) :   0.9443 B(  0-O ,  5-C ) :   1.1421 B(  1-O ,  4-C ) :   0.9442
B(  1-O ,  5-C ) :   1.1421 B(  2-O ,  5-C ) :   2.1664 B(  3-C ,  4-C ) :   0.9852
B(  3-C ,  6-H ) :   0.9599 B(  3-C ,  7-H ) :   0.9590 B(  4-C ,  8-H ) :   0.9599
B(  4-C ,  9-H ) :   0.9590

Dispersion correction           -0.011636006
FINAL SINGLE POINT ENERGY      -342.385924397934

DIPOLE MOMENT
-------------

Method             : SCF
Type of density    : Electron Density
Multiplicity       :   1
Irrep              :   0
Energy             :  -342.3742883919458109 Eh
Relativity type    :
Basis              : AO
                                X                 Y                 Z
Electronic contribution:      4.697137008      -0.000466540      -0.000890794
Nuclear contribution   :     -6.830514278       0.000770451       0.001233937
                        -----------------------------------------
Total Dipole Moment    :     -2.133377270       0.000303911       0.000343143
                        -----------------------------------------
Magnitude (a.u.)       :      2.133377319
Magnitude (Debye)      :      5.422614204

Rotational constants in cm-1:             0.269226             0.128003             0.090343
Rotational constants in MHz :          8071.180173          3837.424666          2708.410500

                             ****ORCA TERMINATED NORMALLY****
TOTAL RUN TIME: 0 days 0 hours 2 minutes 6 seconds 43 msec
