                         Program Version 6.0.1  -  RELEASE   -
|  1> ! Opt B3LYP def2-TZVP TightSCF TightOpt D3BJ RIJCOSX
|  2>
|  3> %maxcore 5000
|  4>
|  5> %pal
|  6> nprocs 32
|  7> end
|  8>
|  9> * xyz 0 1
| 10> O         -1.10230       -0.69800        0.00020
| 11> O          1.10230       -0.69800        0.00020
| 12> O          0.00010        1.32640        0.00020
| 13> C          0.00000        0.10280        0.00050
| 14> C         -2.36110       -0.01660       -0.00060
| 15> C          2.36100       -0.01660       -0.00060
| 16> H         -2.45960        0.59780        0.89950
| 17> H         -3.15470       -0.76840       -0.00080
| 18> H         -2.45870        0.59750       -0.90100
| 19> H          3.15470       -0.76850       -0.00090
| 20> H          2.45960        0.59780        0.89950
| 21> H          2.45870        0.59740       -0.90090
| 22> *
| 23>
| 24>                          ****END OF INPUT****
 Total Charge           Charge          ....    0
 Multiplicity           Mult            ....    1
 Number of Electrons    NEL             ....   48
Dispersion correction           -0.012199739
FINAL SINGLE POINT ENERGY      -343.589091347005
Dispersion correction             ... done (  0.0 sec)
Dispersion correction           -0.012331898
FINAL SINGLE POINT ENERGY      -343.591731310144
Dispersion correction             ... done (  0.0 sec)
Dispersion correction           -0.012338310
FINAL SINGLE POINT ENERGY      -343.591933374059
Dispersion correction             ... done (  0.0 sec)
FINAL SINGLE POINT ENERGY      -343.591900712016
FINAL SINGLE POINT ENERGY      -343.591989016752
Dispersion correction             ... done (  0.0 sec)
Dispersion correction           -0.012335519
FINAL SINGLE POINT ENERGY      -343.591991702007
Dispersion correction             ... done (  0.0 sec)
Dispersion correction           -0.012336031
FINAL SINGLE POINT ENERGY      -343.591992003165
Dispersion correction             ... done (  0.0 sec)
                    ***********************HURRAY********************

CARTESIAN COORDINATES (ANGSTROEM)
---------------------------------
  O     -1.081308   -0.703740   -0.000306
  O      1.081290   -0.703762   -0.000296
  O      0.000011    1.285922   -0.000540
  C     -0.000001    0.081091   -0.000409
  C     -2.335898   -0.006479   -0.000376
  C      2.335897   -0.006530   -0.000384
  H     -2.425677    0.618006    0.887833
  H     -3.096396   -0.782274   -0.000348
  H     -2.425637    0.617904   -0.888661
  H      3.096376   -0.782343   -0.000319
  H      2.425687    0.617990    0.887800
  H      2.425658    0.617814   -0.888693

 Multiplicity           Mult            ....    1
 Number of Electrons    NEL             ....   48
 Basis Dimension        Dim             ....  222

ORBITAL ENERGIES
----------------

  NO   OCC          E(Eh)            E(eV)
   0   2.0000     -19.176155      -521.8097
   1   2.0000     -19.176145      -521.8094
   2   2.0000     -19.111435      -520.0486
   3   2.0000     -10.340811      -281.3878
   4   2.0000     -10.228163      -278.3225
   5   2.0000     -10.228161      -278.3224
   6   2.0000      -1.146122       -31.1876
   7   2.0000      -1.059827       -28.8393
   8   2.0000      -1.022972       -27.8365
   9   2.0000      -0.760997       -20.7078
  10   2.0000      -0.699438       -19.0327
  11   2.0000      -0.582660       -15.8550
  12   2.0000      -0.549936       -14.9645
  13   2.0000      -0.512447       -13.9444
  14   2.0000      -0.494616       -13.4592
  15   2.0000      -0.463682       -12.6174
  16   2.0000      -0.449306       -12.2262
  17   2.0000      -0.438335       -11.9277
  18   2.0000      -0.404784       -11.0147
  19   2.0000      -0.382647       -10.4124
  20   2.0000      -0.364745        -9.9252
  21   2.0000      -0.315655        -8.5894
  22   2.0000      -0.312126        -8.4934
  23   2.0000      -0.295273        -8.0348
  24   0.0000       0.034390         0.9358
  25   0.0000       0.039785         1.0826
  26   0.0000       0.061071         1.6618
  27   0.0000       0.062028         1.6879
  28   0.0000       0.099768         2.7148

MULLIKEN ATOMIC CHARGES
-----------------------
   0 O :   -0.264044
   1 O :   -0.264042
   2 O :   -0.361506
   3 C :    0.444632
   4 C :   -0.154745
   5 C :   -0.154746
   6 H :    0.125260
   7 H :    0.126701
   8 H :    0.125264
   9 H :    0.126701
  10 H :    0.125262
  11 H :    0.125263
Sum of atomic charges:   -0.0000000

LOEWDIN ATOMIC CHARGES
----------------------
   0 O :    0.240462
   1 O :    0.240462
   2 O :    0.081280
   3 C :   -0.644144
   4 C :   -0.293767
   5 C :   -0.293767
   6 H :    0.111144
   7 H :    0.112448
   8 H :    0.111145
   9 H :    0.112448
  10 H :    0.111144
  11 H :    0.111145

  Mayer bond orders larger than 0.100000
B(  0-O ,  3-C ) :   1.2078 B(  0-O ,  4-C ) :   0.8935 B(  1-O ,  3-C ) :   1.2078
B(  1-O ,  5-C ) :   0.8935 B(  2-O ,  3-C ) :   1.9535 B(  4-C ,  6-H ) :   0.9742
B(  4-C ,  7-H ) :   0.9656 B(  4-C ,  8-H ) :   0.9742 B(  5-C ,  9-H ) :   0.9656
B(  5-C , 10-H ) :   0.9742 B(  5-C , 11-H ) :   0.9742

Dispersion correction           -0.012336394
FINAL SINGLE POINT ENERGY      -343.591992064123

DIPOLE MOMENT
-------------

Method             : SCF
Type of density    : Electron Density
Multiplicity       :   1
Irrep              :   0
Energy             :  -343.5796556698826407 Eh
Relativity type    :
Basis              : AO
                                X                 Y                 Z
Electronic contribution:     -0.000016426      -1.033886728       0.000080639
Nuclear contribution   :      0.000017331       0.862637578      -0.000070238
                        -----------------------------------------
Total Dipole Moment    :      0.000000906      -0.171249150       0.000010401
                        -----------------------------------------
Magnitude (a.u.)       :      0.171249150
Magnitude (Debye)      :      0.435280747

Rotational constants in cm-1:             0.348750             0.078510             0.065672
Rotational constants in MHz :         10455.247992          2353.669794          1968.794911

                             ****ORCA TERMINATED NORMALLY****
TOTAL RUN TIME: 0 days 0 hours 1 minutes 31 seconds 100 msec
