                         Program Version 6.0.1  -  RELEASE   -
|  1> ! Opt B3LYP def2-TZVP TightSCF TightOpt D3BJ RIJCOSX
|  2>
|  3> %maxcore 5000
|  4>
|  5> %pal
|  6> nprocs 18
|  7> end
|  8>
|  9> * xyz 0 1
| 10>   Li         -3.05736949492775      2.40996761486557     -1.72723063184221
| 11>   F          -1.47517471065306      5.84938351487736     -0.63114568946232
| 12>   P          -2.38835571911126      4.85765885235954      0.18241539297365
| 13>   O          -2.48069853759363      3.60179477385979     -0.61956579678572
| 14>   O          -3.57681256875554      5.55570899182973      0.68974465074209
| 15>   F          -1.38259296895873      4.56586125220794      1.35734507437451
| 16> *
| 17>
| 18>
| 19>                          ****END OF INPUT****
 Total Charge           Charge          ....    0
 Multiplicity           Mult            ....    1
 Number of Electrons    NEL             ....   52
Dispersion correction           -0.007975089
FINAL SINGLE POINT ENERGY      -699.238663885516
Dispersion correction             ... done (  0.0 sec)
Dispersion correction           -0.007988021
FINAL SINGLE POINT ENERGY      -699.239554212527
Dispersion correction             ... done (  0.0 sec)
Dispersion correction           -0.008023224
FINAL SINGLE POINT ENERGY      -699.240482184817
Dispersion correction             ... done (  0.0 sec)
FINAL SINGLE POINT ENERGY      -699.240637431271
FINAL SINGLE POINT ENERGY      -699.240845758820
FINAL SINGLE POINT ENERGY      -699.240867371905
FINAL SINGLE POINT ENERGY      -699.240880933596
FINAL SINGLE POINT ENERGY      -699.240887310610
FINAL SINGLE POINT ENERGY      -699.240905876633
FINAL SINGLE POINT ENERGY      -699.240941343361
FINAL SINGLE POINT ENERGY      -699.256093823044
FINAL SINGLE POINT ENERGY      -699.257260353855
FINAL SINGLE POINT ENERGY      -699.257015078134
FINAL SINGLE POINT ENERGY      -699.257617507106
FINAL SINGLE POINT ENERGY      -699.257620525480
FINAL SINGLE POINT ENERGY      -699.257760201343
FINAL SINGLE POINT ENERGY      -699.257766904208
Dispersion correction             ... done (  0.0 sec)
Dispersion correction           -0.008523657
FINAL SINGLE POINT ENERGY      -699.257769274756
Dispersion correction             ... done (  0.0 sec)
Dispersion correction           -0.008523440
FINAL SINGLE POINT ENERGY      -699.257769452190
Dispersion correction             ... done (  0.0 sec)
                    ***********************HURRAY********************

CARTESIAN COORDINATES (ANGSTROEM)
---------------------------------
  Li    -3.661843    3.250142   -0.989688
  F     -1.589427    6.027951   -0.466070
  P     -2.184137    4.675388    0.018030
  O     -1.788992    3.547359   -0.879853
  O     -3.668853    4.752113    0.173870
  F     -1.467752    4.587423    1.395274

 Multiplicity           Mult            ....    1
 Number of Electrons    NEL             ....   52
 Basis Dimension        Dim             ....  175

ORBITAL ENERGIES
----------------

  NO   OCC          E(Eh)            E(eV)
   0   2.0000     -77.201202     -2100.7515
   1   2.0000     -24.707078      -672.3138
   2   2.0000     -24.706971      -672.3109
   3   2.0000     -19.103384      -519.8295
   4   2.0000     -19.103362      -519.8289
   5   2.0000      -6.665819      -181.3862
   6   2.0000      -4.830023      -131.4316
   7   2.0000      -4.828136      -131.3802
   8   2.0000      -4.825562      -131.3102
   9   2.0000      -2.025728       -55.1229
  10   2.0000      -1.259898       -34.2836
  11   2.0000      -1.220858       -33.2212
  12   2.0000      -1.019952       -27.7543
  13   2.0000      -0.960718       -26.1425
  14   2.0000      -0.622478       -16.9385
  15   2.0000      -0.551975       -15.0200
  16   2.0000      -0.502740       -13.6803
  17   2.0000      -0.501154       -13.6371
  18   2.0000      -0.461396       -12.5552
  19   2.0000      -0.445632       -12.1263
  20   2.0000      -0.443972       -12.0811
  21   2.0000      -0.395758       -10.7691
  22   2.0000      -0.377865       -10.2822
  23   2.0000      -0.355570        -9.6756
  24   2.0000      -0.311977        -8.4893
  25   2.0000      -0.305324        -8.3083
  26   0.0000      -0.045598        -1.2408
  27   0.0000       0.027347         0.7442
  28   0.0000       0.041447         1.1278
  29   0.0000       0.051843         1.4107
  30   0.0000       0.099675         2.7123

MULLIKEN ATOMIC CHARGES
-----------------------
   0 Li:    0.800776
   1 F :   -0.254775
   2 P :    0.992465
   3 O :   -0.641851
   4 O :   -0.641703
   5 F :   -0.254912
Sum of atomic charges:   -0.0000000

LOEWDIN ATOMIC CHARGES
----------------------
   0 Li:    0.616320
   1 F :    0.011032
   2 P :   -0.039209
   3 O :   -0.299572
   4 O :   -0.299489
   5 F :    0.010918

  Mayer bond orders larger than 0.100000
B(  0-Li,  3-O ) :   0.1768 B(  0-Li,  4-O ) :   0.1767 B(  1-F ,  2-P ) :   1.1229
B(  2-P ,  3-O ) :   1.6833 B(  2-P ,  4-O ) :   1.6836 B(  2-P ,  5-F ) :   1.1227

Dispersion correction           -0.008523377
FINAL SINGLE POINT ENERGY      -699.257769504496

DIPOLE MOMENT
-------------

Method             : SCF
Type of density    : Electron Density
Multiplicity       :   1
Irrep              :   0
Energy             :  -699.2492461274854350 Eh
Relativity type    :
Basis              : AO
                                X                 Y                 Z
Electronic contribution:     -1.235817181      -1.190967283      -0.844389742
Nuclear contribution   :     -0.018679353      -0.018257095      -0.011917520
                        -----------------------------------------
Total Dipole Moment    :     -1.254496534      -1.209224378      -0.856307262
                        -----------------------------------------
Magnitude (a.u.)       :      1.941454938
Magnitude (Debye)      :      4.934786280

Rotational constants in cm-1:             0.166045             0.114886             0.111837
Rotational constants in MHz :          4977.906055          3444.187533          3352.774581

                             ****ORCA TERMINATED NORMALLY****
TOTAL RUN TIME: 0 days 0 hours 3 minutes 56 seconds 292 msec
