                         Program Version 6.0.1  -  RELEASE   -
|  1> ! B3LYP D3BJ 6-311++G(d,p) Opt TightSCF RIJCOSX
|  2>
|  3> %maxcore 5000
|  4>
|  5> %pal
|  6> nprocs 32
|  7> end
|  8>
|  9> * xyz 0 1
| 10>   O          -1.08130786343213     -0.70373951060664     -0.00030605712622
| 11>   O           1.08128976916797     -0.70376177376485     -0.00029616499631
| 12>   O           0.00001091842233      1.28592197684018     -0.00054017083633
| 13>   C          -0.00000125115813      0.08109101981085     -0.00040864169728
| 14>   C          -2.33589781354266     -0.00647871676867     -0.00037644839086
| 15>   C           2.33589665542618     -0.00652973012283     -0.00038418276537
| 16>   H          -2.42567734958824      0.61800568878339      0.88783302445335
| 17>   H          -3.09639630355221     -0.78227363283580     -0.00034819352231
| 18>   H          -2.42563737879276      0.61790406689790     -0.88866059368086
| 19>   H           3.09637619689049     -0.78234346644563     -0.00031925927951
| 20>   H           2.42568665534467      0.61798958064562      0.88780006573640
| 21>   H           2.42565776481448      0.61781449756647     -0.88869337789470
| 22> *
| 23>
| 24>                          ****END OF INPUT****
 Total Charge           Charge          ....    0
 Multiplicity           Mult            ....    1
 Number of Electrons    NEL             ....   48
Dispersion correction           -0.012336394
FINAL SINGLE POINT ENERGY      -343.551426582335
Dispersion correction             ... done (  0.1 sec)
Dispersion correction           -0.012320299
FINAL SINGLE POINT ENERGY      -343.551458657570
Dispersion correction             ... done (  0.1 sec)
                    ***********************HURRAY********************

CARTESIAN COORDINATES (ANGSTROEM)
---------------------------------
  O     -1.082660   -0.703545   -0.000363
  O      1.082641   -0.703565   -0.000363
  O      0.000007    1.288662   -0.000555
  C     -0.000003    0.081532   -0.000529
  C     -2.340331   -0.006198   -0.000359
  C      2.340331   -0.006248   -0.000366
  H     -2.431021    0.618356    0.889599
  H     -3.099528   -0.785015   -0.000270
  H     -2.431097    0.618229   -0.890399
  H      3.099507   -0.785086   -0.000262
  H      2.431037    0.618317    0.889582
  H      2.431117    0.618161   -0.890416

 Multiplicity           Mult            ....    1
 Number of Electrons    NEL             ....   48
 Basis Dimension        Dim             ....  174

ORBITAL ENERGIES
----------------

  NO   OCC          E(Eh)            E(eV)
   0   2.0000     -19.175180      -521.7832
   1   2.0000     -19.175168      -521.7828
   2   2.0000     -19.114194      -520.1237
   3   2.0000     -10.346166      -281.5335
   4   2.0000     -10.230031      -278.3733
   5   2.0000     -10.230030      -278.3733
   6   2.0000      -1.151267       -31.3276
   7   2.0000      -1.064156       -28.9572
   8   2.0000      -1.028964       -27.9995
   9   2.0000      -0.764593       -20.8056
  10   2.0000      -0.702746       -19.1227
  11   2.0000      -0.585483       -15.9318
  12   2.0000      -0.552710       -15.0400
  13   2.0000      -0.514416       -13.9980
  14   2.0000      -0.497722       -13.5437
  15   2.0000      -0.465479       -12.6663
  16   2.0000      -0.452205       -12.3051
  17   2.0000      -0.440697       -11.9920
  18   2.0000      -0.407875       -11.0988
  19   2.0000      -0.384920       -10.4742
  20   2.0000      -0.366659        -9.9773
  21   2.0000      -0.318538        -8.6679
  22   2.0000      -0.313840        -8.5400
  23   2.0000      -0.298687        -8.1277
  24   0.0000      -0.005672        -0.1544
  25   0.0000       0.005306         0.1444
  26   0.0000       0.022939         0.6242
  27   0.0000       0.025483         0.6934
  28   0.0000       0.032420         0.8822

MULLIKEN ATOMIC CHARGES
-----------------------
   0 O :   -0.182003
   1 O :   -0.182003
   2 O :   -0.296133
   3 C :    0.122040
   4 C :   -0.232372
   5 C :   -0.232374
   6 H :    0.175112
   7 H :    0.151193
   8 H :    0.175115
   9 H :    0.151195
  10 H :    0.175112
  11 H :    0.175116
Sum of atomic charges:    0.0000000

LOEWDIN ATOMIC CHARGES
----------------------
   0 O :   -0.121135
   1 O :   -0.121137
   2 O :   -0.194091
   3 C :   -0.046314
   4 C :    0.084432
   5 C :    0.084433
   6 H :    0.052928
   7 H :    0.051050
   8 H :    0.052928
   9 H :    0.051050
  10 H :    0.052928
  11 H :    0.052928

  Mayer bond orders larger than 0.100000
B(  0-O ,  3-C ) :   1.1880 B(  0-O ,  4-C ) :   0.7761 B(  1-O ,  3-C ) :   1.1880
B(  1-O ,  5-C ) :   0.7761 B(  2-O ,  3-C ) :   2.1262 B(  4-C ,  6-H ) :   0.9653
B(  4-C ,  7-H ) :   0.9785 B(  4-C ,  8-H ) :   0.9653 B(  5-C ,  9-H ) :   0.9785
B(  5-C , 10-H ) :   0.9653 B(  5-C , 11-H ) :   0.9653

Dispersion correction           -0.012319909
FINAL SINGLE POINT ENERGY      -343.551460825491

DIPOLE MOMENT
-------------

Method             : SCF
Type of density    : Electron Density
Multiplicity       :   1
Irrep              :   0
Energy             :  -343.5391409166132348 Eh
Relativity type    :
Basis              : AO
                                X                 Y                 Z
Electronic contribution:     -0.000023038      -0.957889603      -0.000323228
Nuclear contribution   :      0.000027299       0.855152505       0.000327553
                        -----------------------------------------
Total Dipole Moment    :      0.000004262      -0.102737097       0.000004325
                        -----------------------------------------
Magnitude (a.u.)       :      0.102737097
Magnitude (Debye)      :      0.261136948

Rotational constants in cm-1:             0.347829             0.078237             0.065455
Rotational constants in MHz :         10427.638057          2345.487386          1962.282414

                             ****ORCA TERMINATED NORMALLY****
TOTAL RUN TIME: 0 days 0 hours 0 minutes 25 seconds 706 msec
