                         Program Version 6.0.1  -  RELEASE   -
|  1> ! Opt B3LYP def2-TZVP TightSCF TightOpt D3BJ RIJCOSX
|  2>
|  3> %maxcore 5000
|  4>
|  5> %pal
|  6> nprocs 32
|  7> end
|  8>
|  9> * xyz 0 1
| 10> O          0.68030       -0.45370        0.00050
| 11> O         -1.49990       -0.77980        0.00030
| 12> O         -0.70930        1.38540        0.00010
| 13> C          1.82450        0.40650       -0.00030
| 14> C          3.07860       -0.44140       -0.00030
| 15> C         -0.52830        0.17520        0.00060
| 16> C         -2.84580       -0.29220       -0.00070
| 17> H          1.80520        1.03900       -0.89490
| 18> H          1.80570        1.03980        0.89370
| 19> H          3.97460        0.18570       -0.00090
| 20> H          3.10340       -1.09290        0.87950
| 21> H          3.10290       -1.09360       -0.87950
| 22> H         -3.03430        0.30100        0.89920
| 23> H         -3.51930       -1.15330       -0.00080
| 24> H         -3.03320        0.30050       -0.90120
| 25> *
| 26>
| 27>                          ****END OF INPUT****
 Total Charge           Charge          ....    0
 Multiplicity           Mult            ....    1
 Number of Electrons    NEL             ....   56
Dispersion correction           -0.016363564
FINAL SINGLE POINT ENERGY      -382.897413222020
Dispersion correction             ... done (  0.0 sec)
Dispersion correction           -0.016506108
FINAL SINGLE POINT ENERGY      -382.900091217833
Dispersion correction             ... done (  0.0 sec)
Dispersion correction           -0.016514626
FINAL SINGLE POINT ENERGY      -382.900349783369
Dispersion correction             ... done (  0.0 sec)
FINAL SINGLE POINT ENERGY      -382.900322282804
FINAL SINGLE POINT ENERGY      -382.900421914990
FINAL SINGLE POINT ENERGY      -382.900426548846
Dispersion correction             ... done (  0.0 sec)
Dispersion correction           -0.016512772
FINAL SINGLE POINT ENERGY      -382.900427063862
Dispersion correction             ... done (  0.0 sec)
Dispersion correction           -0.016513184
FINAL SINGLE POINT ENERGY      -382.900427238361
Dispersion correction             ... done (  0.0 sec)
                    ***********************HURRAY********************

CARTESIAN COORDINATES (ANGSTROEM)
---------------------------------
  O      0.666713   -0.456187    0.000013
  O     -1.471106   -0.783637   -0.000009
  O     -0.704886    1.346689   -0.000994
  C      1.817579    0.418568   -0.000257
  C      3.048960   -0.455756   -0.000180
  C     -0.519005    0.155972   -0.000404
  C     -2.815833   -0.282640   -0.000389
  H      1.769312    1.058728   -0.882343
  H      1.769497    1.059031    0.881625
  H      3.942477    0.171168    0.000216
  H      3.074632   -1.092886    0.884726
  H      3.075107   -1.092592   -0.885276
  H     -2.998389    0.322167    0.887269
  H     -3.451689   -1.163558    0.000080
  H     -2.998268    0.321132   -0.888776

 Multiplicity           Mult            ....    1
 Number of Electrons    NEL             ....   56
 Basis Dimension        Dim             ....  265

ORBITAL ENERGIES
----------------

  NO   OCC          E(Eh)            E(eV)
   0   2.0000     -19.173795      -521.7455
   1   2.0000     -19.171868      -521.6931
   2   2.0000     -19.108902      -519.9797
   3   2.0000     -10.338482      -281.3244
   4   2.0000     -10.231059      -278.4013
   5   2.0000     -10.226421      -278.2751
   6   2.0000     -10.170056      -276.7413
   7   2.0000      -1.143088       -31.1050
   8   2.0000      -1.056675       -28.7536
   9   2.0000      -1.020343       -27.7649
  10   2.0000      -0.786149       -21.3922
  11   2.0000      -0.727097       -19.7853
  12   2.0000      -0.641950       -17.4683
  13   2.0000      -0.578671       -15.7464
  14   2.0000      -0.549273       -14.9465
  15   2.0000      -0.513816       -13.9817
  16   2.0000      -0.488251       -13.2860
  17   2.0000      -0.474666       -12.9163
  18   2.0000      -0.445741       -12.1292
  19   2.0000      -0.423224       -11.5165
  20   2.0000      -0.420668       -11.4470
  21   2.0000      -0.398495       -10.8436
  22   2.0000      -0.374232       -10.1834
  23   2.0000      -0.370589       -10.0842
  24   2.0000      -0.359478        -9.7819
  25   2.0000      -0.313180        -8.5221
  26   2.0000      -0.307699        -8.3729
  27   2.0000      -0.292449        -7.9580
  28   0.0000       0.035159         0.9567
  29   0.0000       0.036646         0.9972
  30   0.0000       0.053039         1.4433
  31   0.0000       0.067751         1.8436
  32   0.0000       0.086333         2.3492

MULLIKEN ATOMIC CHARGES
-----------------------
   0 O :   -0.261018
   1 O :   -0.266804
   2 O :   -0.361906
   3 C :   -0.019525
   4 C :   -0.293968
   5 C :    0.436485
   6 C :   -0.155530
   7 H :    0.107268
   8 H :    0.107245
   9 H :    0.107374
  10 H :    0.112656
  11 H :    0.112647
  12 H :    0.124654
  13 H :    0.125774
  14 H :    0.124648
Sum of atomic charges:   -0.0000000

LOEWDIN ATOMIC CHARGES
----------------------
   0 O :    0.259122
   1 O :    0.238514
   2 O :    0.079861
   3 C :   -0.292697
   4 C :   -0.302108
   5 C :   -0.641900
   6 C :   -0.295246
   7 H :    0.125825
   8 H :    0.125822
   9 H :    0.125051
  10 H :    0.122004
  11 H :    0.121991
  12 H :    0.110856
  13 H :    0.112050
  14 H :    0.110854

  Mayer bond orders larger than 0.100000
B(  0-O ,  3-C ) :   0.8675 B(  0-O ,  5-C ) :   1.2179 B(  1-O ,  5-C ) :   1.2060
B(  1-O ,  6-C ) :   0.8953 B(  2-O ,  5-C ) :   1.9521 B(  3-C ,  4-C ) :   0.9809
B(  3-C ,  7-H ) :   0.9686 B(  3-C ,  8-H ) :   0.9686 B(  4-C ,  9-H ) :   0.9678
B(  4-C , 10-H ) :   0.9705 B(  4-C , 11-H ) :   0.9705 B(  6-C , 12-H ) :   0.9744
B(  6-C , 13-H ) :   0.9657 B(  6-C , 14-H ) :   0.9744

Dispersion correction           -0.016513220
FINAL SINGLE POINT ENERGY      -382.900427263374

DIPOLE MOMENT
-------------

Method             : SCF
Type of density    : Electron Density
Multiplicity       :   1
Irrep              :   0
Energy             :  -382.8839140435993613 Eh
Relativity type    :
Basis              : AO
                                X                 Y                 Z
Electronic contribution:     -3.887522923       0.129767536       0.000060284
Nuclear contribution   :      4.012983231      -0.340257463       0.000061537
                        -----------------------------------------
Total Dipole Moment    :      0.125460308      -0.210489927       0.000121821
                        -----------------------------------------
Magnitude (a.u.)       :      0.245043492
Magnitude (Debye)      :      0.622851059

Rotational constants in cm-1:             0.285619             0.044908             0.039672
Rotational constants in MHz :          8562.635562          1346.313746          1189.330709

                             ****ORCA TERMINATED NORMALLY****
TOTAL RUN TIME: 0 days 0 hours 1 minutes 49 seconds 517 msec
