                         Program Version 6.0.1  -  RELEASE   -
|  1> ! B3LYP D3BJ 6-311++G(d,p) Opt TightSCF RIJCOSX
|  2>
|  3> %maxcore 5000
|  4>
|  5> %pal
|  6> nprocs 32
|  7> end
|  8>
|  9> * xyz 0 1
| 10> H        1.7294124136     -1.3569281212     -2.3539049334
| 11> O       -0.1324712609      0.6111576681     -2.1496334557
| 12> C        2.1459055401     -1.2712357357     -1.3555867855
| 13> H        3.1143607504     -1.7150237253     -1.1495833262
| 14> H       -2.0899383856     -1.3815569816     -1.1049318433
| 15> S       -0.1187059689      0.1135859007     -0.6961407827
| 16> C        1.4856653467     -0.6310514327     -0.3896646980
| 17> C       -1.7110415810     -0.6586911211     -0.3895607473
| 18> O       -0.1177596334      1.4832568323      0.0007394269
| 19> H        1.9202516205     -0.5582210988      0.6019050930
| 20> C       -2.4293012193     -0.3643254402      0.6944783523
| 21> H       -3.3884914997     -0.8450444926      0.8573418698
| 22> H       -2.0717491024      0.3543788362      1.4247116555
| 23> *
| 24>
| 25>                          ****END OF INPUT****
 Total Charge           Charge          ....    0
 Multiplicity           Mult            ....    1
 Number of Electrons    NEL             ....   62
Dispersion correction           -0.021684211
FINAL SINGLE POINT ENERGY      -704.403618853720
Dispersion correction             ... done (  0.1 sec)
Dispersion correction           -0.022010061
FINAL SINGLE POINT ENERGY      -704.434638258566
Dispersion correction             ... done (  0.1 sec)
Dispersion correction           -0.022424613
FINAL SINGLE POINT ENERGY      -704.453597471921
Dispersion correction             ... done (  0.1 sec)
FINAL SINGLE POINT ENERGY      -704.458972991723
FINAL SINGLE POINT ENERGY      -704.459764879797
FINAL SINGLE POINT ENERGY      -704.459923021123
FINAL SINGLE POINT ENERGY      -704.459947122610
Dispersion correction             ... done (  0.1 sec)
Dispersion correction           -0.022669916
FINAL SINGLE POINT ENERGY      -704.459955689988
Dispersion correction             ... done (  0.1 sec)
Dispersion correction           -0.022673025
FINAL SINGLE POINT ENERGY      -704.459956786539
Dispersion correction             ... done (  0.1 sec)
                    ***********************HURRAY********************

CARTESIAN COORDINATES (ANGSTROEM)
---------------------------------
  H      1.790660   -1.047093   -2.397285
  O     -0.165253    0.492809   -2.270474
  C      2.024588   -1.223268   -1.352927
  H      2.895544   -1.822579   -1.112526
  H     -1.688436   -1.526485   -1.002883
  S     -0.127625    0.337466   -0.812402
  C      1.270410   -0.702498   -0.395783
  C     -1.526525   -0.680144   -0.346037
  O     -0.089369    1.501088    0.079877
  H      1.432646   -0.809055    0.670193
  C     -2.281084   -0.344083    0.690148
  H     -3.152500   -0.930504    0.958973
  H     -2.046918    0.534646    1.281296

 Multiplicity           Mult            ....    1
 Number of Electrons    NEL             ....   62
 Basis Dimension        Dim             ....  204

ORBITAL ENERGIES
----------------

  NO   OCC          E(Eh)            E(eV)
   0   2.0000     -89.054120     -2423.2858
   1   2.0000     -19.118346      -520.2367
   2   2.0000     -19.118342      -520.2365
   3   2.0000     -10.222967      -278.1811
   4   2.0000     -10.222956      -278.1808
   5   2.0000     -10.211986      -277.8823
   6   2.0000     -10.211974      -277.8819
   7   2.0000      -8.118185      -220.9070
   8   2.0000      -6.080435      -165.4571
   9   2.0000      -6.080111      -165.4482
  10   2.0000      -6.079821      -165.4403
  11   2.0000      -1.114309       -30.3219
  12   2.0000      -1.010556       -27.4986
  13   2.0000      -0.831273       -22.6201
  14   2.0000      -0.811851       -22.0916
  15   2.0000      -0.704605       -19.1733
  16   2.0000      -0.626878       -17.0582
  17   2.0000      -0.570944       -15.5362
  18   2.0000      -0.539208       -14.6726
  19   2.0000      -0.502992       -13.6871
  20   2.0000      -0.489091       -13.3088
  21   2.0000      -0.486373       -13.2349
  22   2.0000      -0.443961       -12.0808
  23   2.0000      -0.420381       -11.4391
  24   2.0000      -0.418061       -11.3760
  25   2.0000      -0.344545        -9.3756
  26   2.0000      -0.336921        -9.1681
  27   2.0000      -0.322434        -8.7739
  28   2.0000      -0.320986        -8.7345
  29   2.0000      -0.307243        -8.3605
  30   2.0000      -0.296034        -8.0555
  31   0.0000      -0.069986        -1.9044
  32   0.0000      -0.030498        -0.8299
  33   0.0000      -0.010655        -0.2899
  34   0.0000      -0.000133        -0.0036
  35   0.0000       0.012877         0.3504

MULLIKEN ATOMIC CHARGES
-----------------------
   0 H :    0.200411
   1 O :   -0.253942
   2 C :   -0.303965
   3 H :    0.136719
   4 H :    0.246854
   5 S :    0.113209
   6 C :   -0.082588
   7 C :   -0.083378
   8 O :   -0.254431
   9 H :    0.246745
  10 C :   -0.302970
  11 H :    0.136422
  12 H :    0.200915
Sum of atomic charges:    0.0000000

LOEWDIN ATOMIC CHARGES
----------------------
   0 H :    0.064843
   1 O :   -0.619149
   2 C :    0.001192
   3 H :    0.049298
   4 H :    0.064543
   5 S :    1.350441
   6 C :   -0.235952
   7 C :   -0.235882
   8 O :   -0.619238
   9 H :    0.064559
  10 C :    0.001167
  11 H :    0.049296
  12 H :    0.064881

  Mayer bond orders larger than 0.100000
B(  0-H ,  2-C ) :   0.9350 B(  1-O ,  5-S ) :   2.0629 B(  1-O ,  7-C ) :  -0.1366
B(  1-O ,  8-O ) :  -0.2390 B(  2-C ,  3-H ) :   0.9303 B(  2-C ,  5-S ) :   0.1011
B(  2-C ,  6-C ) :   1.9505 B(  4-H ,  7-C ) :   0.8355 B(  5-S ,  6-C ) :   0.7354
B(  5-S ,  7-C ) :   0.7356 B(  5-S ,  8-O ) :   2.0628 B(  5-S , 10-C ) :   0.1020
B(  6-C ,  7-C ) :  -0.1915 B(  6-C ,  8-O ) :  -0.1369 B(  6-C ,  9-H ) :   0.8352
B(  7-C , 10-C ) :   1.9503 B( 10-C , 11-H ) :   0.9305 B( 10-C , 12-H ) :   0.9347

Dispersion correction           -0.022673630
FINAL SINGLE POINT ENERGY      -704.459956869551

DIPOLE MOMENT
-------------

Method             : SCF
Type of density    : Electron Density
Multiplicity       :   1
Irrep              :   0
Energy             :  -704.4372832399118352 Eh
Relativity type    :
Basis              : AO
                                X                 Y                 Z
Electronic contribution:      0.001319350       3.561604968      -1.528430784
Nuclear contribution   :     -0.002157210      -5.313276742       2.279759874
                        -----------------------------------------
Total Dipole Moment    :     -0.000837861      -1.751671774       0.751329090
                        -----------------------------------------
Magnitude (a.u.)       :      1.906003701
Magnitude (Debye)      :      4.844676395

Rotational constants in cm-1:             0.121017             0.059464             0.055073
Rotational constants in MHz :          3627.985385          1782.678327          1651.032852

                             ****ORCA TERMINATED NORMALLY****
TOTAL RUN TIME: 0 days 0 hours 1 minutes 42 seconds 100 msec
