                         Program Version 6.0.1  -  RELEASE   -
|  1> ! Opt B3LYP D4 def2-TZVP TightSCF TightOpt CPCM(water)  RIJCOSX def2/J
|  2>
|  3> %maxcore 5000
|  4>
|  5> %pal
|  6> nprocs 18
|  7> end
|  8>
|  9> * xyz 0 1
| 10> Li      -3.4812380000      2.9479260000     -1.7065160000
| 11> F       -1.7589500000      5.8662810000     -0.7443140000
| 12> P       -2.5029660000      4.5608040000     -0.1723790000
| 13> O       -0.9682710000      3.7230480000      0.1776950000
| 14> O       -3.7487890000      5.5106850000      0.4144130000
| 15> F       -1.9007900000      4.2316310000      1.2826640000
| 16> *
| 17>
| 18>
| 19>                          ****END OF INPUT****
 Total Charge           Charge          ....    0
 Multiplicity           Mult            ....    1
 Number of Electrons    NEL             ....   52
 Basis Dimension        Dim             ....  175

ORBITAL ENERGIES
----------------

  NO   OCC          E(Eh)            E(eV)
   0   2.0000     -77.169756     -2099.8958
   1   2.0000     -24.818748      -675.3525
   2   2.0000     -24.670765      -671.3256
   3   2.0000     -19.231850      -523.3253
   4   2.0000     -19.045703      -518.2599
   5   2.0000      -6.635701      -180.5666
   6   2.0000      -4.800090      -130.6171
   7   2.0000      -4.796336      -130.5150
   8   2.0000      -4.792828      -130.4195
   9   2.0000      -2.046925       -55.6997
  10   2.0000      -1.358997       -36.9802
  11   2.0000      -1.196519       -32.5589
  12   2.0000      -0.981138       -26.6981
  13   2.0000      -0.878366       -23.9015
  14   2.0000      -0.676631       -18.4121
  15   2.0000      -0.579052       -15.7568
  16   2.0000      -0.577620       -15.7179
  17   2.0000      -0.546473       -14.8703
  18   2.0000      -0.460040       -12.5183
  19   2.0000      -0.444448       -12.0941
  20   2.0000      -0.413030       -11.2391
  21   2.0000      -0.378355       -10.2956
  22   2.0000      -0.353463        -9.6182
  23   2.0000      -0.276105        -7.5132
  24   2.0000      -0.249635        -6.7929
  25   2.0000      -0.223080        -6.0703
  26   0.0000      -0.157643        -4.2897
  27   0.0000      -0.014180        -0.3859
  28   0.0000      -0.007742        -0.2107
  29   0.0000       0.027187         0.7398
  30   0.0000       0.076512         2.0820

MULLIKEN ATOMIC CHARGES
-----------------------
   0 Li:    0.804413
   1 F :   -0.293588
   2 P :    0.419079
   3 O :   -0.169237
   4 O :   -0.813466
   5 F :    0.052799
Sum of atomic charges:    0.0000000

LOEWDIN ATOMIC CHARGES
----------------------
   0 Li:    0.606210
   1 F :   -0.103889
   2 P :   -0.028783
   3 O :   -0.089692
   4 O :   -0.608376
   5 F :    0.224530

  Mayer bond orders larger than 0.100000
B(  0-Li,  2-P ) :   0.2943 B(  1-F ,  2-P ) :   0.9610 B(  2-P ,  3-O ) :   0.5655
B(  2-P ,  4-O ) :   1.5317 B(  2-P ,  5-F ) :   0.6351 B(  3-O ,  4-O ) :   0.1026
B(  3-O ,  5-F ) :   0.6595

Dispersion correction           -0.007891175
FINAL SINGLE POINT ENERGY      -698.906044736626
Dispersion correction             ... done (  0.0 sec)
Dispersion correction           -0.007896731
FINAL SINGLE POINT ENERGY      -698.929000578308
Dispersion correction             ... done (  0.0 sec)
Dispersion correction           -0.007901781
FINAL SINGLE POINT ENERGY      -698.951210848365
Dispersion correction             ... done (  0.0 sec)
FINAL SINGLE POINT ENERGY      -698.959897497171
FINAL SINGLE POINT ENERGY      -698.968324301625
FINAL SINGLE POINT ENERGY      -698.973608343202
FINAL SINGLE POINT ENERGY      -698.977708892913
FINAL SINGLE POINT ENERGY      -698.981952928138
FINAL SINGLE POINT ENERGY      -698.986448722928
FINAL SINGLE POINT ENERGY      -698.991191213002
FINAL SINGLE POINT ENERGY      -699.276246192564
FINAL SINGLE POINT ENERGY      -699.276307807830
FINAL SINGLE POINT ENERGY      -699.276329420038
FINAL SINGLE POINT ENERGY      -699.276343448056
FINAL SINGLE POINT ENERGY      -699.276361356962
FINAL SINGLE POINT ENERGY      -699.276376014619
FINAL SINGLE POINT ENERGY      -699.276386459062
Dispersion correction           -0.007997366
FINAL SINGLE POINT ENERGY      -699.276396156926
Dispersion correction             ... done (  0.0 sec)
Dispersion correction           -0.007997761
FINAL SINGLE POINT ENERGY      -699.276401382976
Dispersion correction             ... done (  0.0 sec)

CARTESIAN COORDINATES (ANGSTROEM)
---------------------------------
  Li    -3.057369    2.409968   -1.727231
  F     -1.475175    5.849384   -0.631146
  P     -2.388356    4.857659    0.182415
  O     -2.480699    3.601795   -0.619566
  O     -3.576813    5.555709    0.689745
  F     -1.382593    4.565861    1.357345

Dispersion correction           -0.007998039
FINAL SINGLE POINT ENERGY      -699.276402552120
Dispersion correction             ... done (  0.0 sec)
                             ****ORCA TERMINATED NORMALLY****
TOTAL RUN TIME: 0 days 0 hours 6 minutes 31 seconds 506 msec
